
                                 *****************
                                 * O   R   C   A *
                                 *****************

                                            #,                                       
                                            ###                                      
                                            ####                                     
                                            #####                                    
                                            ######                                   
                                           ########,                                 
                                     ,,################,,,,,                         
                               ,,#################################,,                 
                          ,,##########################################,,             
                       ,#########################################, ''#####,          
                    ,#############################################,,   '####,        
                  ,##################################################,,,,####,       
                ,###########''''           ''''###############################       
              ,#####''   ,,,,##########,,,,          '''####'''          '####       
            ,##' ,,,,###########################,,,                        '##       
           ' ,,###''''                  '''############,,,                           
         ,,##''                                '''############,,,,        ,,,,,,###''
      ,#''                                            '''#######################'''  
     '                                                          ''''####''''         
             ,#######,   #######,   ,#######,      ##                                
            ,#'     '#,  ##    ##  ,#'     '#,    #''#        ######   ,####,        
            ##       ##  ##   ,#'  ##            #'  '#       #        #'  '#        
            ##       ##  #######   ##           ,######,      #####,   #    #        
            '#,     ,#'  ##    ##  '#,     ,#' ,#      #,         ##   #,  ,#        
             '#######'   ##     ##  '#######'  #'      '#     #####' # '####'        



                  #######################################################
                  #                        -***-                        #
                  #          Department of theory and spectroscopy      #
                  #    Directorship and core code : Frank Neese         #
                  #        Max Planck Institute fuer Kohlenforschung    #
                  #                Kaiser Wilhelm Platz 1               #
                  #                 D-45470 Muelheim/Ruhr               #
                  #                      Germany                        #
                  #                                                     #
                  #                  All rights reserved                #
                  #                        -***-                        #
                  #######################################################


                         Program Version 5.0.2 -  RELEASE  -


 With contributions from (in alphabetic order):
   Daniel Aravena         : Magnetic Suceptibility
   Michael Atanasov       : Ab Initio Ligand Field Theory (pilot matlab implementation)
   Alexander A. Auer      : GIAO ZORA, VPT2 properties, NMR spectrum
   Ute Becker             : Parallelization
   Giovanni Bistoni       : ED, misc. LED, open-shell LED, HFLD
   Martin Brehm           : Molecular dynamics
   Dmytro Bykov           : SCF Hessian
   Vijay G. Chilkuri      : MRCI spin determinant printing, contributions to CSF-ICE
   Dipayan Datta          : RHF DLPNO-CCSD density
   Achintya Kumar Dutta   : EOM-CC, STEOM-CC
   Dmitry Ganyushin       : Spin-Orbit,Spin-Spin,Magnetic field MRCI
   Miquel Garcia          : C-PCM and meta-GGA Hessian, CC/C-PCM, Gaussian charge scheme
   Yang Guo               : DLPNO-NEVPT2, F12-NEVPT2, CIM, IAO-localization
   Andreas Hansen         : Spin unrestricted coupled pair/coupled cluster methods
   Benjamin Helmich-Paris : MC-RPA, TRAH-SCF, COSX integrals
   Lee Huntington         : MR-EOM, pCC
   Robert Izsak           : Overlap fitted RIJCOSX, COSX-SCS-MP3, EOM
   Marcus Kettner         : VPT2
   Christian Kollmar      : KDIIS, OOCD, Brueckner-CCSD(T), CCSD density, CASPT2, CASPT2-K
   Simone Kossmann        : Meta GGA functionals, TD-DFT gradient, OOMP2, MP2 Hessian
   Martin Krupicka        : Initial AUTO-CI
   Lucas Lang             : DCDCAS
   Marvin Lechner         : AUTO-CI (C++ implementation), FIC-MRCC
   Dagmar Lenk            : GEPOL surface, SMD
   Dimitrios Liakos       : Extrapolation schemes; Compound Job, initial MDCI parallelization
   Dimitrios Manganas     : Further ROCIS development; embedding schemes
   Dimitrios Pantazis     : SARC Basis sets
   Anastasios Papadopoulos: AUTO-CI, single reference methods and gradients
   Taras Petrenko         : DFT Hessian,TD-DFT gradient, ASA, ECA, R-Raman, ABS, FL, XAS/XES, NRVS
   Peter Pinski           : DLPNO-MP2, DLPNO-MP2 Gradient
   Christoph Reimann      : Effective Core Potentials
   Marius Retegan         : Local ZFS, SOC
   Christoph Riplinger    : Optimizer, TS searches, QM/MM, DLPNO-CCSD(T), (RO)-DLPNO pert. Triples
   Tobias Risthaus        : Range-separated hybrids, TD-DFT gradient, RPA, STAB
   Michael Roemelt        : Original ROCIS implementation
   Masaaki Saitow         : Open-shell DLPNO-CCSD energy and density
   Barbara Sandhoefer     : DKH picture change effects
   Avijit Sen             : IP-ROCIS
   Kantharuban Sivalingam : CASSCF convergence, NEVPT2, FIC-MRCI
   Bernardo de Souza      : ESD, SOC TD-DFT
   Georgi Stoychev        : AutoAux, RI-MP2 NMR, DLPNO-MP2 response
   Willem Van den Heuvel  : Paramagnetic NMR
   Boris Wezisla          : Elementary symmetry handling
   Frank Wennmohs         : Technical directorship


 We gratefully acknowledge several colleagues who have allowed us to
 interface, adapt or use parts of their codes:
   Stefan Grimme, W. Hujo, H. Kruse, P. Pracht,  : VdW corrections, initial TS optimization,
                  C. Bannwarth, S. Ehlert          DFT functionals, gCP, sTDA/sTD-DF
   Ed Valeev, F. Pavosevic, A. Kumar             : LibInt (2-el integral package), F12 methods
   Garnet Chan, S. Sharma, J. Yang, R. Olivares  : DMRG
   Ulf Ekstrom                                   : XCFun DFT Library
   Mihaly Kallay                                 : mrcc  (arbitrary order and MRCC methods)
   Jiri Pittner, Ondrej Demel                    : Mk-CCSD
   Frank Weinhold                                : gennbo (NPA and NBO analysis)
   Christopher J. Cramer and Donald G. Truhlar   : smd solvation model
   Lars Goerigk                                  : TD-DFT with DH, B97 family of functionals
   V. Asgeirsson, H. Jonsson                     : NEB implementation
   FAccTs GmbH                                   : IRC, NEB, NEB-TS, DLPNO-Multilevel, CI-OPT
                                                   MM, QMMM, 2- and 3-layer-ONIOM, Crystal-QMMM,
                                                   LR-CPCM, SF, NACMEs, symmetry and pop. for TD-DFT,
                                                   nearIR, NL-DFT gradient (VV10), updates on ESD,
                                                   ML-optimized integration grids
   S Lehtola, MJT Oliveira, MAL Marques          : LibXC Library
   Liviu Ungur et al                             : ANISO software


 Your calculation uses the libint2 library for the computation of 2-el integrals
 For citations please refer to: http://libint.valeyev.net

 Your ORCA version has been built with support for libXC version: 5.1.0
 For citations please refer to: https://tddft.org/programs/libxc/

 This ORCA versions uses:
   CBLAS   interface :  Fast vector & matrix operations
   LAPACKE interface :  Fast linear algebra routines
   SCALAPACK package :  Parallel linear algebra routines
   Shared memory     :  Shared parallel matrices
   BLAS/LAPACK       :  OpenBLAS 0.3.15  USE64BITINT DYNAMIC_ARCH NO_AFFINITY Haswell SINGLE_THREADED
        Core in use  :  Haswell
   Copyright (c) 2011-2014, The OpenBLAS Project


================================================================================

----- Orbital basis set information -----
Your calculation utilizes the basis: def2-TZVP
   F. Weigend and R. Ahlrichs, Phys. Chem. Chem. Phys. 7, 3297 (2005).

================================================================================
                                        WARNINGS
                       Please study these warnings very carefully!
================================================================================


WARNING: Broken symmetry calculations need fully converged wavefunctions
  ===> : Setting SCFConvForced true
         You can overwrite this default with %scf ConvForced false 


INFO   : the flag for use of the SHARK integral package has been found!

================================================================================
                                       INPUT FILE
================================================================================
NAME = uhf.in
|  1> ! UHF def2-TZVP TightSCF
|  2> 
|  3> %scf BrokenSym 1,1 end
|  4> 
|  5> %paras R= 4.0,0.5,35 end
|  6> 
|  7> * xyz 0 1
|  8> H 0 0 0
|  9> F 0 0 {R}
| 10> *
| 11> 
| 12>                          ****END OF INPUT****
================================================================================

                       ******************************
                       * Parameter Scan Calculation *
                       ******************************

Trajectory settings:
    -> SCF surface will be mapped

There are 1 parameter(s) to be scanned
             R: range=   4.00000000 ..   0.50000000  steps=   35
There will be   35 energy evaluations


         *************************************************************
                                TRAJECTORY STEP   1
                  R  :   4.00000000
         *************************************************************
---------------------------------
CARTESIAN COORDINATES (ANGSTROEM)
---------------------------------
  H      0.000000    0.000000    0.000000
  F      0.000000    0.000000    4.000000

----------------------------
CARTESIAN COORDINATES (A.U.)
----------------------------
  NO LB      ZA    FRAG     MASS         X           Y           Z
   0 H     1.0000    0     1.008    0.000000    0.000000    0.000000
   1 F     9.0000    0    18.998    0.000000    0.000000    7.558905

--------------------------------
INTERNAL COORDINATES (ANGSTROEM)
--------------------------------
 H      0   0   0     0.000000000000     0.00000000     0.00000000
 F      1   0   0     4.000000000000     0.00000000     0.00000000

---------------------------
INTERNAL COORDINATES (A.U.)
---------------------------
 H      0   0   0     0.000000000000     0.00000000     0.00000000
 F      1   0   0     7.558904535685     0.00000000     0.00000000

---------------------
BASIS SET INFORMATION
---------------------
There are 2 groups of distinct atoms

 Group   1 Type H   : 5s1p contracted to 3s1p pattern {311/1}
 Group   2 Type F   : 11s6p2d1f contracted to 5s3p2d1f pattern {62111/411/11/1}

Atom   0H    basis set group =>   1
Atom   1F    basis set group =>   2
------------------------------------------------------------------------------
                           ORCA GTO INTEGRAL CALCULATION
------------------------------------------------------------------------------
------------------------------------------------------------------------------
                   ___                                                        
                  /   \      - P O W E R E D   B Y -                         
                 /     \                                                     
                 |  |  |   _    _      __       _____    __    __             
                 |  |  |  | |  | |    /  \     |  _  \  |  |  /  |          
                  \  \/   | |  | |   /    \    | | | |  |  | /  /          
                 / \  \   | |__| |  /  /\  \   | |_| |  |  |/  /          
                |  |  |   |  __  | /  /__\  \  |    /   |      \           
                |  |  |   | |  | | |   __   |  |    \   |  |\   \          
                \     /   | |  | | |  |  |  |  | |\  \  |  | \   \       
                 \___/    |_|  |_| |__|  |__|  |_| \__\ |__|  \__/        
                                                                              
                      - O R C A' S   B I G   F R I E N D -                    
                                      &                                       
                       - I N T E G R A L  F E E D E R -                       
                                                                              
 v1 FN, 2020, v2 2021                                                         
------------------------------------------------------------------------------


Reading SHARK input file uhf.SHARKINP.tmp ... ok
----------------------
SHARK INTEGRAL PACKAGE
----------------------

Number of atoms                             ...      2
Number of basis functions                   ...     37
Number of shells                            ...     15
Maximum angular momentum                    ...      3
Integral batch strategy                     ... SHARK/LIBINT Hybrid
RI-J (if used) integral strategy            ... SPLIT-RIJ (Revised 2003 algorithm where possible)
Printlevel                                  ...      1
Contraction scheme used                     ... SEGMENTED contraction
Coulomb Range Separation                    ... NOT USED
Exchange Range Separation                   ... NOT USED
Finite Nucleus Model                        ... NOT USED
Auxiliary Coulomb fitting basis             ... NOT available
Auxiliary J/K fitting basis                 ... NOT available
Auxiliary Correlation fitting basis         ... NOT available
Auxiliary 'external' fitting basis          ... NOT available
Integral threshold                          ...     2.500000e-11
Primitive cut-off                           ...     2.500000e-12
Primitive pair pre-selection threshold      ...     2.500000e-12

Calculating pre-screening integrals         ... done (  0.1 sec) Dimension = 15
Organizing shell pair data                  ... done (  0.2 sec)
Shell pair information
Total number of shell pairs                 ...       120
Shell pairs after pre-screening             ...       109
Total number of primitive shell pairs       ...       376
Primitive shell pairs kept                  ...       311
          la=0 lb=0:     33 shell pairs
          la=1 lb=0:     28 shell pairs
          la=1 lb=1:      9 shell pairs
          la=2 lb=0:     15 shell pairs
          la=2 lb=1:      7 shell pairs
          la=2 lb=2:      3 shell pairs
          la=3 lb=0:      7 shell pairs
          la=3 lb=1:      4 shell pairs
          la=3 lb=2:      2 shell pairs
          la=3 lb=3:      1 shell pairs

Calculating one electron integrals          ... done (  0.0 sec)
Calculating Nuclear repulsion               ... done (  0.1 sec) ENN=      1.190648718675 Eh

SHARK setup successfully completed in   1.3 seconds

Maximum memory used throughout the entire GTOINT-calculation: 12.4 MB
-------------------------------------------------------------------------------
                                 ORCA SCF
-------------------------------------------------------------------------------

------------
SCF SETTINGS
------------
Hamiltonian:
 Ab initio Hamiltonian  Method          .... Hartree-Fock(GTOs)


General Settings:
 Integral files         IntName         .... uhf
 Hartree-Fock type      HFTyp           .... UHF
 Total Charge           Charge          ....    0
 Multiplicity           Mult            ....    1
 Number of Electrons    NEL             ....   10
 Basis Dimension        Dim             ....   37
 Nuclear Repulsion      ENuc            ....      1.1906487187 Eh

Convergence Acceleration:
 DIIS                   CNVDIIS         .... on
   Start iteration      DIISMaxIt       ....    12
   Startup error        DIISStart       ....  0.200000
   # of expansion vecs  DIISMaxEq       ....     5
   Bias factor          DIISBfac        ....   1.050
   Max. coefficient     DIISMaxC        ....  10.000
 Trust-Rad. Augm. Hess. CNVTRAH         .... auto
   Auto Start mean grad. ratio tolernc. ....  1.125000
   Auto Start start iteration           ....    20
   Auto Start num. interpolation iter.  ....    10
   Max. Number of Micro iterations      ....    16
   Max. Number of Macro iterations      .... Maxiter - #DIIS iter
   Number of Davidson start vectors     ....     2
   Converg. threshold I  (grad. norm)   ....   1.000e-05
   Converg. threshold II (energy diff.) ....   1.000e-08
   Grad. Scal. Fac. for Micro threshold ....   0.100
   Minimum threshold for Micro iter.    ....   0.010
   NR start threshold (gradient norm)   ....   0.001
   Initial trust radius                 ....   0.400
   Minimum AH scaling param. (alpha)    ....   1.000
   Maximum AH scaling param. (alpha)    .... 1000.000
   Orbital update algorithm             .... Taylor
   White noise on init. David. guess    .... on
   Maximum white noise                  ....   0.010
   Quad. conv. algorithm                .... NR
 SOSCF                  CNVSOSCF        .... off
 Level Shifting         CNVShift        .... on
   Level shift para.    LevelShift      ....    0.2500
   Turn off err/grad.   ShiftErr        ....    0.0010
 Zerner damping         CNVZerner       .... off
 Static damping         CNVDamp         .... on
   Fraction old density DampFac         ....    0.7000
   Max. Damping (<1)    DampMax         ....    0.9800
   Min. Damping (>=0)   DampMin         ....    0.0000
   Turn off err/grad.   DampErr         ....    0.1000
 Fernandez-Rico         CNVRico         .... off

SCF Procedure:
 Maximum # iterations   MaxIter         ....   125
 SCF integral mode      SCFMode         .... Direct
   Integral package                     .... SHARK and LIBINT hybrid scheme
 Reset frequency        DirectResetFreq ....    20
 Integral Threshold     Thresh          ....  2.500e-11 Eh
 Primitive CutOff       TCut            ....  2.500e-12 Eh

Convergence Tolerance:
 Convergence Check Mode ConvCheckMode   .... Total+1el-Energy
 Convergence forced     ConvForced      .... 1
 Energy Change          TolE            ....  1.000e-08 Eh
 1-El. energy change                    ....  1.000e-05 Eh
 DIIS Error             TolErr          ....  5.000e-07


The Broken Symmetry feature is operative
   Number of electrons in the 'A' domain  ... 1
   Number of electrons in the 'B' domain  ... 1
We will first do a calculation with S=  1.0
and then try to converge to the broken symmetry state with Ms=  0.0


Diagonalization of the overlap matrix:
Smallest eigenvalue                        ... 3.084e-02
Time for diagonalization                   ...    0.001 sec
Threshold for overlap eigenvalues          ... 1.000e-08
Number of eigenvalues below threshold      ... 0
Time for construction of square roots      ...    0.168 sec
Total time needed                          ...    0.208 sec

Time for model grid setup =    0.135 sec

------------------------------
INITIAL GUESS: MODEL POTENTIAL
------------------------------
Loading Hartree-Fock densities                     ... done
Calculating cut-offs                               ... done
Initializing the effective Hamiltonian             ... done
Setting up the integral package (SHARK)            ... done
Starting the Coulomb interaction                   ... done (   0.3 sec)
Reading the grid                                   ... done
Mapping shells                                     ... done
Starting the XC term evaluation                    ... done (   0.0 sec)
Transforming the Hamiltonian                       ... done (   0.0 sec)
Diagonalizing the Hamiltonian                      ... done (   0.0 sec)
Back transforming the eigenvectors                 ... done (   0.0 sec)
Now organizing SCF variables                       ... done
                      ------------------
                      INITIAL GUESS DONE (   0.6 sec)
                      ------------------
--------------
SCF ITERATIONS
--------------
ITER       Energy         Delta-E        Max-DP      RMS-DP      [F,P]     Damp
               ***  Starting incremental Fock matrix formation  ***
  0    -99.8890388460   0.000000000000 0.01914752  0.00071832  0.3616512 0.7000
  1    -99.8945683400  -0.005529493917 0.01912663  0.00066123  0.2555276 0.7000
                               ***Turning on DIIS***
  2    -99.8988932667  -0.004324926722 0.01621374  0.00053515  0.1803246 0.7000
  3    -99.8599811682   0.038912098446 0.01524983  0.00048190  0.1274339 0.7000
  4    -99.8694551058  -0.009473937562 0.04381072  0.00135024  0.0898363 0.0000
  5    -99.9109203370  -0.041465231200 0.00622419  0.00018860  0.0049349 0.0000
  6    -99.9099804658   0.000939871197 0.00427972  0.00013479  0.0024374 0.0000
  7    -99.9113913097  -0.001410843914 0.00184137  0.00005605  0.0006947 0.0000
  8    -99.9116751628  -0.000283853090 0.00020074  0.00000755  0.0000751 0.0000
  9    -99.9115769187   0.000098244136 0.00004470  0.00000255  0.0000185 0.0000
 10    -99.9116085261  -0.000031607468 0.00001491  0.00000113  0.0000031 0.0000
 11    -99.9116078110   0.000000715170 0.00000651  0.00000047  0.0000029 0.0000
 12    -99.9116097042  -0.000001893224 0.00000655  0.00000047  0.0000018 0.0000
                            ***DIIS convergence achieved***

               *****************************************************
               *                     SUCCESS                       *
               *           SCF CONVERGED AFTER  13 CYCLES          *
               *****************************************************


----------------
TOTAL SCF ENERGY
----------------

Total Energy       :          -99.91160945 Eh           -2718.73311 eV

Components:
Nuclear Repulsion  :            1.19064872 Eh              32.39920 eV
Electronic Energy  :         -101.10225817 Eh           -2751.13231 eV
One Electron Energy:         -142.13566352 Eh           -3867.70803 eV
Two Electron Energy:           41.03340535 Eh            1116.57573 eV

Virial components:
Potential Energy   :         -199.82679800 Eh           -5437.56361 eV
Kinetic Energy     :           99.91518855 Eh            2718.83050 eV
Virial Ratio       :            1.99996418


---------------
SCF CONVERGENCE
---------------

  Last Energy change         ...    2.5544e-07  Tolerance :   1.0000e-08
  Last MAX-Density change    ...    2.3074e-07  Tolerance :   1.0000e-07
  Last RMS-Density change    ...    1.3329e-08  Tolerance :   5.0000e-09
  Last DIIS Error            ...    1.4386e-07  Tolerance :   5.0000e-07

             **** THE GBW FILE WAS UPDATED (uhf.gbw) ****
             **** DENSITY uhf.scfp WAS UPDATED ****
             **** ENERGY FILE WAS UPDATED (uhf.en.tmp) ****
----------------------
UHF SPIN CONTAMINATION
----------------------

Expectation value of <S**2>     :     2.003682
Ideal value S*(S+1) for S=1.0   :     2.000000
Deviation                       :     0.003682

             **** THE GBW FILE WAS UPDATED (uhf.gbw) ****
             **** DENSITY uhf.scfp WAS UPDATED ****
----------------
ORBITAL ENERGIES
----------------
                 SPIN UP ORBITALS
  NO   OCC          E(Eh)            E(eV) 
   0   1.0000     -26.405423      -718.5281 
   1   1.0000      -1.670552       -45.4580 
   2   1.0000      -0.843498       -22.9527 
   3   1.0000      -0.730220       -19.8703 
   4   1.0000      -0.730204       -19.8699 
   5   1.0000      -0.498995       -13.5783 
   6   0.0000       0.347856         9.4657 
   7   0.0000       0.627062        17.0632 
   8   0.0000       0.639645        17.4056 
   9   0.0000       0.678034        18.4503 
  10   0.0000       0.685851        18.6630 
  11   0.0000       1.595775        43.4232 
  12   0.0000       1.595801        43.4239 
  13   0.0000       1.595880        43.4261 
  14   0.0000       2.149026        58.4780 
  15   0.0000       2.166739        58.9600 
  16   0.0000       2.166742        58.9600 
  17   0.0000       2.222636        60.4810 
  18   0.0000       2.222709        60.4830 
  19   0.0000       2.486702        67.6666 
  20   0.0000       3.449267        93.8593 
  21   0.0000       3.530819        96.0785 
  22   0.0000       3.535259        96.1993 
  23   0.0000       3.777592       102.7935 
  24   0.0000       7.252380       197.3473 
  25   0.0000       7.263301       197.6445 
  26   0.0000       7.263305       197.6446 
  27   0.0000       7.296274       198.5417 
  28   0.0000       7.296274       198.5417 
  29   0.0000       7.351984       200.0577 
  30   0.0000       7.351987       200.0577 
  31   0.0000       8.678825       236.1628 
  32   0.0000       8.704397       236.8587 
  33   0.0000       8.704405       236.8589 
  34   0.0000       8.784537       239.0394 
  35   0.0000       8.784597       239.0410 
  36   0.0000      57.870126      1574.7262 

                 SPIN DOWN ORBITALS
  NO   OCC          E(Eh)            E(eV) 
   0   1.0000     -26.356940      -717.2088 
   1   1.0000      -1.475647       -40.1544 
   2   1.0000      -0.678708       -18.4686 
   3   1.0000      -0.678667       -18.4675 
   4   0.0000       0.057127         1.5545 
   5   0.0000       0.058259         1.5853 
   6   0.0000       0.488617        13.2960 
   7   0.0000       0.652810        17.7639 
   8   0.0000       0.689835        18.7714 
   9   0.0000       0.700494        19.0614 
  10   0.0000       0.781974        21.2786 
  11   0.0000       1.728364        47.0312 
  12   0.0000       1.728390        47.0319 
  13   0.0000       1.728464        47.0339 
  14   0.0000       2.229639        60.6716 
  15   0.0000       2.229644        60.6717 
  16   0.0000       2.260996        61.5248 
  17   0.0000       2.260998        61.5249 
  18   0.0000       2.272796        61.8459 
  19   0.0000       2.617655        71.2300 
  20   0.0000       3.557092        96.7934 
  21   0.0000       3.561627        96.9168 
  22   0.0000       3.637432        98.9796 
  23   0.0000       3.834521       104.3426 
  24   0.0000       7.335230       199.6018 
  25   0.0000       7.337865       199.6735 
  26   0.0000       7.337866       199.6735 
  27   0.0000       7.345714       199.8870 
  28   0.0000       7.345714       199.8870 
  29   0.0000       7.358607       200.2379 
  30   0.0000       7.358610       200.2379 
  31   0.0000       8.806601       239.6398 
  32   0.0000       8.806660       239.6414 
  33   0.0000       8.822311       240.0673 
  34   0.0000       8.822313       240.0673 
  35   0.0000       8.827915       240.2198 
  36   0.0000      57.897618      1575.4743 

                    ********************************
                    * MULLIKEN POPULATION ANALYSIS *
                    ********************************

--------------------------------------------
MULLIKEN ATOMIC CHARGES AND SPIN POPULATIONS
--------------------------------------------
   0 H :   -0.000105    0.999956
   1 F :    0.000105    1.000044
Sum of atomic charges         :    0.0000000
Sum of atomic spin populations:    2.0000000

-----------------------------------------------------
MULLIKEN REDUCED ORBITAL CHARGES AND SPIN POPULATIONS
-----------------------------------------------------
CHARGE
  0 H s       :     1.000104  s :     1.000104
      pz      :     0.000000  p :     0.000000
      px      :     0.000000
      py      :     0.000000
  1 F s       :     3.998980  s :     3.998980
      pz      :     1.999851  p :     4.999739
      px      :     0.999940
      py      :     1.999948
      dz2     :     0.000255  d :     0.001019
      dxz     :     0.000000
      dyz     :     0.000000
      dx2y2   :     0.000764
      dxy     :     0.000000
      f0      :     0.000017  f :     0.000157
      f+1     :     0.000025
      f-1     :     0.000003
      f+2     :     0.000028
      f-2     :     0.000000
      f+3     :     0.000042
      f-3     :     0.000043

SPIN
  0 H s       :     0.999956  s :     0.999956
      pz      :     0.000000  p :     0.000000
      px      :     0.000000
      py      :     0.000000
  1 F s       :     0.000236  s :     0.000236
      pz      :    -0.000008  p :     0.999882
      px      :     0.999927
      py      :    -0.000037
      dz2     :    -0.000057  d :    -0.000228
      dxz     :     0.000000
      dyz     :    -0.000000
      dx2y2   :    -0.000171
      dxy     :    -0.000000
      f0      :     0.000017  f :     0.000155
      f+1     :     0.000025
      f-1     :     0.000003
      f+2     :     0.000028
      f-2     :     0.000000
      f+3     :     0.000042
      f-3     :     0.000041


                     *******************************
                     * LOEWDIN POPULATION ANALYSIS *
                     *******************************

-------------------------------------------
LOEWDIN ATOMIC CHARGES AND SPIN POPULATIONS
-------------------------------------------
   0 H :   -0.000070    0.999921
   1 F :    0.000070    1.000079

----------------------------------------------------
LOEWDIN REDUCED ORBITAL CHARGES AND SPIN POPULATIONS
----------------------------------------------------
CHARGE
  0 H s       :     1.000070  s :     1.000070
      pz      :     0.000000  p :     0.000000
      px      :     0.000000
      py      :     0.000000
  1 F s       :     3.998980  s :     3.998980
      pz      :     1.999885  p :     4.999773
      px      :     0.999940
      py      :     1.999948
      dz2     :     0.000255  d :     0.001019
      dxz     :     0.000000
      dyz     :     0.000000
      dx2y2   :     0.000764
      dxy     :     0.000000
      f0      :     0.000017  f :     0.000157
      f+1     :     0.000025
      f-1     :     0.000003
      f+2     :     0.000028
      f-2     :     0.000000
      f+3     :     0.000042
      f-3     :     0.000043

SPIN
  0 H s       :     0.999921  s :     0.999921
      pz      :     0.000000  p :     0.000000
      px      :     0.000000
      py      :     0.000000
  1 F s       :     0.000237  s :     0.000237
      pz      :     0.000026  p :     0.999916
      px      :     0.999927
      py      :    -0.000037
      dz2     :    -0.000057  d :    -0.000228
      dxz     :     0.000000
      dyz     :    -0.000000
      dx2y2   :    -0.000171
      dxy     :    -0.000000
      f0      :     0.000017  f :     0.000155
      f+1     :     0.000025
      f-1     :     0.000003
      f+2     :     0.000028
      f-2     :     0.000000
      f+3     :     0.000042
      f-3     :     0.000041


                      *****************************
                      * MAYER POPULATION ANALYSIS *
                      *****************************

  NA   - Mulliken gross atomic population
  ZA   - Total nuclear charge
  QA   - Mulliken gross atomic charge
  VA   - Mayer's total valence
  BVA  - Mayer's bonded valence
  FA   - Mayer's free valence

  ATOM       NA         ZA         QA         VA         BVA        FA
  0 H      1.0001     1.0000    -0.0001     1.0002     0.0002     1.0000
  1 F      8.9999     9.0000     0.0001     1.0076     0.0002     1.0074

  Mayer bond orders larger than 0.100000



                ***UHF Natural Orbitals were saved in uhf.unso***


                ***UHF Natural Orbitals were saved in uhf.uno***

QR-MO GENERATION
 Dim     =   37
 Mult    =    3
 NEl     =   10
 N(DOMO) =    4
 N(SOMO) =    2
 N(VMO)  =   31


                ***Quasi-Restricted Orbitals were saved in uhf.qro***

Orbital Energies of Quasi-Restricted MO's
   0( 2) :   -26.356910 a.u.  -717.208 eV
   1( 2) :    -1.473112 a.u.   -40.085 eV
   2( 2) :    -0.678409 a.u.   -18.460 eV
   3( 2) :    -0.678368 a.u.   -18.459 eV
   4( 1) :    -0.357041 a.u.    -9.716 eV alpha=  -22.953 beta=    3.522
   5( 1) :    -0.186431 a.u.    -5.073 eV alpha=  -13.578 beta=    3.432
   6( 0) :     0.347849 a.u.     9.465 eV
   7( 0) :     0.626758 a.u.    17.055 eV
   8( 0) :     0.639645 a.u.    17.406 eV
   9( 0) :     0.677869 a.u.    18.446 eV
  10( 0) :     0.685689 a.u.    18.659 eV
  11( 0) :     1.595775 a.u.    43.423 eV
  12( 0) :     1.595801 a.u.    43.424 eV
  13( 0) :     1.595880 a.u.    43.426 eV
  14( 0) :     2.147278 a.u.    58.430 eV
  15( 0) :     2.166739 a.u.    58.960 eV
  16( 0) :     2.166742 a.u.    58.960 eV
  17( 0) :     2.222636 a.u.    60.481 eV
  18( 0) :     2.222709 a.u.    60.483 eV
  19( 0) :     2.486701 a.u.    67.667 eV
  20( 0) :     3.449267 a.u.    93.859 eV
  21( 0) :     3.530795 a.u.    96.078 eV
  22( 0) :     3.535235 a.u.    96.199 eV
  23( 0) :     3.777506 a.u.   102.791 eV
  24( 0) :     7.252380 a.u.   197.347 eV
  25( 0) :     7.263190 a.u.   197.641 eV
  26( 0) :     7.263194 a.u.   197.642 eV
  27( 0) :     7.296274 a.u.   198.542 eV
  28( 0) :     7.296274 a.u.   198.542 eV
  29( 0) :     7.351984 a.u.   200.058 eV
  30( 0) :     7.351987 a.u.   200.058 eV
  31( 0) :     8.678383 a.u.   236.151 eV
  32( 0) :     8.704397 a.u.   236.859 eV
  33( 0) :     8.704405 a.u.   236.859 eV
  34( 0) :     8.784537 a.u.   239.039 eV
  35( 0) :     8.784597 a.u.   239.041 eV
  36( 0) :    57.870125 a.u.  1574.726 eV
------------------------------------------------------------------------------
                           ORCA ORBITAL LOCALIZATION
------------------------------------------------------------------------------

Input orbitals are from                  ... uhf.uno
Output orbitals are to                   ... uhf.unoloc
Max. number of iterations                ... 64
Localizations seeded randomly            ... on
Convergence tolerance                    ... 1.000e-05
Using relative localization threshhold   ... 1.000e-05
Treshold for strong local MOs            ... 0.000e+00
Treshold for bond MOs                    ... 1.000e-01
Operator                                 ... 0
Orbital range for localization           ... 4 to 5
Localization criterion                   ... PIPEK-MEZEY
Entering Jacobi type localization:
Using Cholesky decomposition as initial guess.
Initial value of the localization sum :     1.999955
ITERATION   0 : L=    1.9999548686 DL=  0.00e+00 (MAX-T)=   0.000 
ITERATION   1 : L=    1.9999548686 DL=  0.00e+00 (MAX-T)=   0.000 
ITERATION   2 : L=    1.9999548686 DL=  0.00e+00 (MAX-T)=   0.000 
LOCALIZATION SUM CONVERGED


--------------------------------------------------------------------------------
                    LOCALIZED MOLECULAR ORBITAL COMPOSITIONS
--------------------------------------------------------------------------------

The Mulliken populations for each LMO on each atom are computed
The LMO`s will be ordered according to atom index and type
  (A) Strongly localized MO`s have populations of >=0.000 on one atom
  (B) Two center bond orbitals have populations of >=0.100 on two atoms
  (C) Other MO`s are considered to be `delocalized`

FOUND  -   2 strongly local MO`s
       -   0 two center bond MO`s
       -   0 significantly delocalized MO`s

Rather strongly localized orbitals:
MO   5:   1F  -   1.000000
MO   4:   0H  -   0.999977
Localized MO's were stored in: uhf.unoloc

----------------------------
 BROKEN SYMMETRY INFORMATION
----------------------------

first open orbital = 4
last open orbital  = 5
HOMO(alpha)        = 4
HOMO(beta)         = 4
The new occupation numbers
   0:    1.000    1.000
   1:    1.000    1.000
   2:    1.000    1.000
   3:    1.000    1.000
   4:    1.000    1.000
   5:    0.000    0.000
   6:    0.000    0.000
   7:    0.000    0.000
   8:    0.000    0.000
   9:    0.000    0.000
  10:    0.000    0.000
  11:    0.000    0.000
  12:    0.000    0.000
  13:    0.000    0.000
  14:    0.000    0.000
  15:    0.000    0.000
  16:    0.000    0.000
  17:    0.000    0.000
  18:    0.000    0.000
  19:    0.000    0.000
  20:    0.000    0.000
  21:    0.000    0.000
  22:    0.000    0.000
  23:    0.000    0.000
  24:    0.000    0.000
  25:    0.000    0.000
  26:    0.000    0.000
  27:    0.000    0.000
  28:    0.000    0.000
  29:    0.000    0.000
  30:    0.000    0.000
  31:    0.000    0.000
  32:    0.000    0.000
  33:    0.000    0.000
  34:    0.000    0.000
  35:    0.000    0.000
  36:    0.000    0.000

--------------
SCF ITERATIONS
--------------
ITER       Energy         Delta-E        Max-DP      RMS-DP      [F,P]     Damp
               ***  Starting incremental Fock matrix formation  ***
  0    -99.9069553342   0.000000000000 0.00176604  0.00013658  0.0038266 0.7000
  1    -99.9080675783  -0.001112244101 0.00148901  0.00012085  0.0024263 0.7000
                               ***Turning on DIIS***
  2    -99.9089527491  -0.000885170731 0.00400130  0.00032577  0.0013428 0.0000
  3    -99.9096641883  -0.000711439179 0.00067192  0.00005629  0.0013101 0.0000
  4    -99.9101566511  -0.000492462858 0.00072267  0.00006145  0.0009781 0.0000
  5    -99.9108321381  -0.000675487036 0.00067379  0.00005359  0.0007523 0.0000
  6    -99.9112320804  -0.000399942267 0.00050843  0.00003851  0.0004438 0.0000
  7    -99.9115494350  -0.000317354620 0.00041809  0.00003186  0.0002145 0.0000
  8    -99.9116049361  -0.000055501089 0.00002151  0.00000140  0.0000151 0.0000
  9    -99.9116070575  -0.000002121348 0.00000422  0.00000031  0.0000037 0.0000
                            ***DIIS convergence achieved***

               *****************************************************
               *                     SUCCESS                       *
               *           SCF CONVERGED AFTER  10 CYCLES          *
               *****************************************************


----------------
TOTAL SCF ENERGY
----------------

Total Energy       :          -99.91160760 Eh           -2718.73306 eV

Components:
Nuclear Repulsion  :            1.19064872 Eh              32.39920 eV
Electronic Energy  :         -101.10225631 Eh           -2751.13226 eV
One Electron Energy:         -142.13570445 Eh           -3867.70915 eV
Two Electron Energy:           41.03344813 Eh            1116.57689 eV

Virial components:
Potential Energy   :         -199.82683145 Eh           -5437.56452 eV
Kinetic Energy     :           99.91522385 Eh            2718.83146 eV
Virial Ratio       :            1.99996381


---------------
SCF CONVERGENCE
---------------

  Last Energy change         ...   -5.3835e-07  Tolerance :   1.0000e-08
  Last MAX-Density change    ...    2.7194e-07  Tolerance :   1.0000e-07
  Last RMS-Density change    ...    1.8803e-08  Tolerance :   5.0000e-09
  Last DIIS Error            ...    7.8860e-07  Tolerance :   5.0000e-07

             **** THE GBW FILE WAS UPDATED (uhf.gbw) ****
             **** DENSITY uhf.scfp WAS UPDATED ****
             **** ENERGY FILE WAS UPDATED (uhf.en.tmp) ****
----------------------
UHF SPIN CONTAMINATION
----------------------

Expectation value of <S**2>     :     1.003679
Ideal value S*(S+1) for S=0.0   :     0.000000
Deviation                       :     1.003679

             **** THE GBW FILE WAS UPDATED (uhf.gbw) ****
             **** DENSITY uhf.scfp WAS UPDATED ****
----------------
ORBITAL ENERGIES
----------------
                 SPIN UP ORBITALS
  NO   OCC          E(Eh)            E(eV) 
   0   1.0000     -26.356938      -717.2087 
   1   1.0000      -1.475656       -40.1546 
   2   1.0000      -0.678717       -18.4688 
   3   1.0000      -0.678708       -18.4686 
   4   1.0000      -0.498989       -13.5782 
   5   0.0000       0.058260         1.5853 
   6   0.0000       0.348169         9.4742 
   7   0.0000       0.651851        17.7378 
   8   0.0000       0.689831        18.7713 
   9   0.0000       0.697586        18.9823 
  10   0.0000       0.781970        21.2785 
  11   0.0000       1.595779        43.4233 
  12   0.0000       1.595804        43.4240 
  13   0.0000       1.595884        43.4262 
  14   0.0000       2.229566        60.6696 
  15   0.0000       2.229644        60.6717 
  16   0.0000       2.260999        61.5249 
  17   0.0000       2.261000        61.5249 
  18   0.0000       2.272762        61.8450 
  19   0.0000       2.486818        67.6698 
  20   0.0000       3.557094        96.7934 
  21   0.0000       3.561490        96.9131 
  22   0.0000       3.637434        98.9796 
  23   0.0000       3.834478       104.3415 
  24   0.0000       7.335233       199.6018 
  25   0.0000       7.337867       199.6735 
  26   0.0000       7.337869       199.6736 
  27   0.0000       7.345716       199.8871 
  28   0.0000       7.345716       199.8871 
  29   0.0000       7.358608       200.2379 
  30   0.0000       7.358611       200.2380 
  31   0.0000       8.806597       239.6397 
  32   0.0000       8.806656       239.6413 
  33   0.0000       8.822309       240.0672 
  34   0.0000       8.822314       240.0674 
  35   0.0000       8.827916       240.2198 
  36   0.0000      57.897621      1575.4744 

                 SPIN DOWN ORBITALS
  NO   OCC          E(Eh)            E(eV) 
   0   1.0000     -26.405411      -718.5277 
   1   1.0000      -1.670534       -45.4575 
   2   1.0000      -0.843488       -22.9525 
   3   1.0000      -0.730194       -19.8696 
   4   1.0000      -0.730171       -19.8690 
   5   0.0000       0.057102         1.5538 
   6   0.0000       0.487795        13.2736 
   7   0.0000       0.628376        17.0990 
   8   0.0000       0.639653        17.4058 
   9   0.0000       0.678043        18.4505 
  10   0.0000       0.688943        18.7471 
  11   0.0000       1.728371        47.0314 
  12   0.0000       1.728396        47.0321 
  13   0.0000       1.728470        47.0341 
  14   0.0000       2.149050        58.4786 
  15   0.0000       2.166746        58.9601 
  16   0.0000       2.166746        58.9601 
  17   0.0000       2.222713        60.4831 
  18   0.0000       2.222715        60.4831 
  19   0.0000       2.617565        71.2276 
  20   0.0000       3.449275        93.8595 
  21   0.0000       3.530828        96.0787 
  22   0.0000       3.535411        96.2034 
  23   0.0000       3.777648       102.7950 
  24   0.0000       7.252387       197.3475 
  25   0.0000       7.263309       197.6447 
  26   0.0000       7.263311       197.6447 
  27   0.0000       7.296282       198.5419 
  28   0.0000       7.296282       198.5419 
  29   0.0000       7.351993       200.0579 
  30   0.0000       7.351996       200.0580 
  31   0.0000       8.678836       236.1631 
  32   0.0000       8.704413       236.8591 
  33   0.0000       8.704414       236.8591 
  34   0.0000       8.784553       239.0399 
  35   0.0000       8.784613       239.0415 
  36   0.0000      57.870137      1574.7265 

                    ********************************
                    * MULLIKEN POPULATION ANALYSIS *
                    ********************************

--------------------------------------------
MULLIKEN ATOMIC CHARGES AND SPIN POPULATIONS
--------------------------------------------
   0 H :   -0.000098    1.000006
   1 F :    0.000098   -1.000006
Sum of atomic charges         :    0.0000000
Sum of atomic spin populations:    0.0000000

-----------------------------------------------------
MULLIKEN REDUCED ORBITAL CHARGES AND SPIN POPULATIONS
-----------------------------------------------------
CHARGE
  0 H s       :     1.000098  s :     1.000098
      pz      :     0.000000  p :     0.000000
      px      :     0.000000
      py      :     0.000000
  1 F s       :     3.998980  s :     3.998980
      pz      :     1.999857  p :     4.999745
      px      :     0.999940
      py      :     1.999948
      dz2     :     0.000255  d :     0.001019
      dxz     :     0.000000
      dyz     :     0.000000
      dx2y2   :     0.000764
      dxy     :     0.000000
      f0      :     0.000017  f :     0.000157
      f+1     :     0.000025
      f-1     :     0.000003
      f+2     :     0.000028
      f-2     :     0.000000
      f+3     :     0.000042
      f-3     :     0.000043

SPIN
  0 H s       :     1.000006  s :     1.000006
      pz      :     0.000000  p :     0.000000
      px      :    -0.000000
      py      :     0.000000
  1 F s       :    -0.000227  s :    -0.000227
      pz      :     0.000037  p :    -0.999853
      px      :    -0.999927
      py      :     0.000037
      dz2     :     0.000057  d :     0.000229
      dxz     :    -0.000000
      dyz     :    -0.000000
      dx2y2   :     0.000171
      dxy     :     0.000000
      f0      :    -0.000017  f :    -0.000155
      f+1     :    -0.000025
      f-1     :    -0.000003
      f+2     :    -0.000028
      f-2     :    -0.000000
      f+3     :    -0.000042
      f-3     :    -0.000041


                     *******************************
                     * LOEWDIN POPULATION ANALYSIS *
                     *******************************

-------------------------------------------
LOEWDIN ATOMIC CHARGES AND SPIN POPULATIONS
-------------------------------------------
   0 H :   -0.000063    0.999963
   1 F :    0.000063   -0.999963

----------------------------------------------------
LOEWDIN REDUCED ORBITAL CHARGES AND SPIN POPULATIONS
----------------------------------------------------
CHARGE
  0 H s       :     1.000063  s :     1.000063
      pz      :     0.000000  p :     0.000000
      px      :     0.000000
      py      :     0.000000
  1 F s       :     3.998980  s :     3.998980
      pz      :     1.999892  p :     4.999780
      px      :     0.999940
      py      :     1.999948
      dz2     :     0.000255  d :     0.001019
      dxz     :     0.000000
      dyz     :     0.000000
      dx2y2   :     0.000764
      dxy     :     0.000000
      f0      :     0.000017  f :     0.000157
      f+1     :     0.000025
      f-1     :     0.000003
      f+2     :     0.000028
      f-2     :     0.000000
      f+3     :     0.000042
      f-3     :     0.000043

SPIN
  0 H s       :     0.999963  s :     0.999963
      pz      :     0.000000  p :     0.000000
      px      :    -0.000000
      py      :     0.000000
  1 F s       :    -0.000225  s :    -0.000225
      pz      :     0.000077  p :    -0.999813
      px      :    -0.999927
      py      :     0.000037
      dz2     :     0.000058  d :     0.000229
      dxz     :    -0.000000
      dyz     :    -0.000000
      dx2y2   :     0.000171
      dxy     :     0.000000
      f0      :    -0.000017  f :    -0.000155
      f+1     :    -0.000025
      f-1     :    -0.000003
      f+2     :    -0.000028
      f-2     :    -0.000000
      f+3     :    -0.000042
      f-3     :    -0.000041


                      *****************************
                      * MAYER POPULATION ANALYSIS *
                      *****************************

  NA   - Mulliken gross atomic population
  ZA   - Total nuclear charge
  QA   - Mulliken gross atomic charge
  VA   - Mayer's total valence
  BVA  - Mayer's bonded valence
  FA   - Mayer's free valence

  ATOM       NA         ZA         QA         VA         BVA        FA
  0 H      1.0001     1.0000    -0.0001     1.0002     0.0002     1.0000
  1 F      8.9999     9.0000     0.0001     1.0076     0.0002     1.0073

  Mayer bond orders larger than 0.100000


-------
TIMINGS
-------

Total SCF time: 0 days 0 hours 0 min 12 sec 

Total time                  ....      12.755 sec
Sum of individual times     ....      13.384 sec  (104.9%)

Fock matrix formation       ....      10.605 sec  ( 83.1%)
Diagonalization             ....       0.038 sec  (  0.3%)
Density matrix formation    ....       0.001 sec  (  0.0%)
Population analysis         ....       0.846 sec  (  6.6%)
Initial guess               ....       0.478 sec  (  3.8%)
Orbital Transformation      ....       0.000 sec  (  0.0%)
Orbital Orthonormalization  ....       0.000 sec  (  0.0%)
DIIS solution               ....       1.280 sec  ( 10.0%)
--------------------------
UHF CORRESPONDING ORBITALS
--------------------------
Transforming orbitals                         ... done
Choosing virtual orbitals in the orth. comp.  ... done

                ***UHF Corresponding Orbitals were saved in uhf.uco***


Now the overlap between the corresponding orbitals will be plotted
Since there are an equal number of alpha and beta orbitals each orbital in the
alpha set is matched by an orbital in the beta set. If all overlaps are close to
one you have a normal UHF solution with some spin polarization
If you have a broken symmetry solution there will be overlaps that are
significantly smaller than one. These orbitals are the non-orthogonal magnetic
orbitals of the broken symmetry UHF solution.

----------------------
 Orbital    Overlap(*)
----------------------
   0:      1.00000
   1:      0.99973
   2:      0.99973
   3:      0.99871
   4:      0.00000
(*)  the overlap is weighted by the product of occupation numbers
     NOTE: the whole analysis is not valid for fractional occupations

------------------------------------------
BROKEN SYMMETRY MAGNETIC COUPLING ANALYSIS
------------------------------------------

S(High-Spin)      =   1.0    
<S**2>(High-Spin) =   2.0037    
<S**2>(BrokenSym) =   1.0037    
E(High-Spin)      =   -99.911609 Eh
E(BrokenSym)      =   -99.911608 Eh
E(High-Spin)-E(BrokenSym)= -0.0001 eV     -0.407 cm**-1 (FERROMAGNETIC coupling)

          ---------------------------------------------------------
          | Spin-Hamiltonian Analysis based on H(HDvV)= -2J*SA*SB |
    -------                                                       -----------
    | J(1) =       0.41 cm**-1    (from -(E[HS]-E[BS])/Smax**2)             |
    | J(2) =       0.20 cm**-1    (from -(E[HS]-E[BS])/(Smax*(Smax+1))      |
    | J(3) =       0.41 cm**-1    (from -(E[HS]-E[BS])/(<S**2>HS-<S**2>BS)) |
    -------------------------------------------------------------------------

  J(1): (a) A.P. Ginsberg J. Am. Chem. Soc. 102 (1980), 111
        (b) L. Noodleman J. Chem. Phys. 74 (1981), 5737
        (c) L. Noodleman E.R. Davidson Chem. Phys. 109 (1986), 131
  J(2)  (d) A. Bencini D. Gatteschi J. Am. Chem. Soc. 108 (1980), 5763
  J(3)  (e) K. Yamaguchi Y. Takahara T. Fueno in: V.H. Smith (Ed.)
            Applied Quantum Chemistry. Reidel, Dordrecht (1986), pp 155
        (f) T.Soda et al. Chem. Phys. Lett., 319, (2000), 223

-------
TIMINGS
-------

Total SCF time: 0 days 0 hours 0 min 27 sec 

Total time                  ....      27.867 sec
Sum of individual times     ....      16.025 sec  ( 57.5%)

Fock matrix formation       ....       0.000 sec  (  0.0%)
Diagonalization             ....       0.000 sec  (  0.0%)
Density matrix formation    ....       0.000 sec  (  0.0%)
Population analysis         ....      16.025 sec  ( 57.5%)
Initial guess               ....       0.000 sec  (  0.0%)
Orbital Transformation      ....       0.000 sec  (  0.0%)
Orbital Orthonormalization  ....       0.000 sec  (  0.0%)
DIIS solution               ....       0.000 sec  (  0.0%)

Maximum memory used throughout the entire SCF-calculation: 226.6 MB

-------------------------   --------------------
FINAL SINGLE POINT ENERGY       -99.911607595814
-------------------------   --------------------

Storing actual gbw-file in uhf.001.gbw ... done

                            ***************************************
                            *     ORCA property calculations      *
                            ***************************************

                                    ---------------------
                                    Active property flags
                                    ---------------------
   (+) Dipole Moment


------------------------------------------------------------------------------
                       ORCA ELECTRIC PROPERTIES CALCULATION
------------------------------------------------------------------------------

Dipole Moment Calculation                       ... on
Quadrupole Moment Calculation                   ... off
Polarizability Calculation                      ... off
GBWName                                         ... uhf.gbw
Electron density                                ... uhf.scfp
The origin for moment calculation is the CENTER OF MASS  = ( 0.000000,  0.000000  7.178050)

-------------
DIPOLE MOMENT
-------------
                                X             Y             Z
Electronic contribution:      0.00000      -0.00000       3.75105
Nuclear contribution   :      0.00000       0.00000      -3.75036
                        -----------------------------------------
Total Dipole Moment    :      0.00000      -0.00000       0.00069
                        -----------------------------------------
Magnitude (a.u.)       :      0.00069
Magnitude (Debye)      :      0.00175



--------------------
Rotational spectrum 
--------------------
 
Rotational constants in cm-1:     0.000000     1.100699     1.100699 
Rotational constants in MHz :     0.000000 32998.140725 32998.140725 

 Dipole components along the rotational axes: 
x,y,z [a.u.] :     0.000688    -0.000000     0.000000 
x,y,z [Debye]:     0.001749    -0.000000     0.000000 

 

         *************************************************************
                                TRAJECTORY STEP   2
                  R  :   3.89705882
         *************************************************************
---------------------------------
CARTESIAN COORDINATES (ANGSTROEM)
---------------------------------
  H      0.000000    0.000000    0.000000
  F      0.000000    0.000000    3.897059

----------------------------
CARTESIAN COORDINATES (A.U.)
----------------------------
  NO LB      ZA    FRAG     MASS         X           Y           Z
   0 H     1.0000    0     1.008    0.000000    0.000000    0.000000
   1 F     9.0000    0    18.998    0.000000    0.000000    7.364374

--------------------------------
INTERNAL COORDINATES (ANGSTROEM)
--------------------------------
 H      0   0   0     0.000000000000     0.00000000     0.00000000
 F      1   0   0     3.897058823529     0.00000000     0.00000000

---------------------------
INTERNAL COORDINATES (A.U.)
---------------------------
 H      0   0   0     0.000000000000     0.00000000     0.00000000
 F      1   0   0     7.364373904252     0.00000000     0.00000000

------------------------------------------------------------------------------
                   ___                                                        
                  /   \      - P O W E R E D   B Y -                         
                 /     \                                                     
                 |  |  |   _    _      __       _____    __    __             
                 |  |  |  | |  | |    /  \     |  _  \  |  |  /  |          
                  \  \/   | |  | |   /    \    | | | |  |  | /  /          
                 / \  \   | |__| |  /  /\  \   | |_| |  |  |/  /          
                |  |  |   |  __  | /  /__\  \  |    /   |      \           
                |  |  |   | |  | | |   __   |  |    \   |  |\   \          
                \     /   | |  | | |  |  |  |  | |\  \  |  | \   \       
                 \___/    |_|  |_| |__|  |__|  |_| \__\ |__|  \__/        
                                                                              
                      - O R C A' S   B I G   F R I E N D -                    
                                      &                                       
                       - I N T E G R A L  F E E D E R -                       
                                                                              
 v1 FN, 2020, v2 2021                                                         
------------------------------------------------------------------------------


Reading SHARK input file uhf.SHARKINP.tmp ... ok
----------------------
SHARK INTEGRAL PACKAGE
----------------------

Number of atoms                             ...      2
Number of basis functions                   ...     37
Number of shells                            ...     15
Maximum angular momentum                    ...      3
Integral batch strategy                     ... SHARK/LIBINT Hybrid
RI-J (if used) integral strategy            ... SPLIT-RIJ (Revised 2003 algorithm where possible)
Printlevel                                  ...      1
Contraction scheme used                     ... SEGMENTED contraction
Coulomb Range Separation                    ... NOT USED
Exchange Range Separation                   ... NOT USED
Finite Nucleus Model                        ... NOT USED
Auxiliary Coulomb fitting basis             ... NOT available
Auxiliary J/K fitting basis                 ... NOT available
Auxiliary Correlation fitting basis         ... NOT available
Auxiliary 'external' fitting basis          ... NOT available
Integral threshold                          ...     2.500000e-11
Primitive cut-off                           ...     2.500000e-12
Primitive pair pre-selection threshold      ...     2.500000e-12

Calculating pre-screening integrals         ... done (  0.1 sec) Dimension = 15
Organizing shell pair data                  ... done (  0.3 sec)
Shell pair information
Total number of shell pairs                 ...       120
Shell pairs after pre-screening             ...       110
Total number of primitive shell pairs       ...       376
Primitive shell pairs kept                  ...       312
          la=0 lb=0:     33 shell pairs
          la=1 lb=0:     29 shell pairs
          la=1 lb=1:      9 shell pairs
          la=2 lb=0:     15 shell pairs
          la=2 lb=1:      7 shell pairs
          la=2 lb=2:      3 shell pairs
          la=3 lb=0:      7 shell pairs
          la=3 lb=1:      4 shell pairs
          la=3 lb=2:      2 shell pairs
          la=3 lb=3:      1 shell pairs

Calculating one electron integrals          ... done (  0.0 sec)
Calculating Nuclear repulsion               ... done (  0.1 sec) ENN=      1.222099816904 Eh

SHARK setup successfully completed in   1.6 seconds

Maximum memory used throughout the entire GTOINT-calculation: 12.5 MB

Diagonalization of the overlap matrix:
Smallest eigenvalue                        ... 3.083e-02
Time for diagonalization                   ...    0.001 sec
Threshold for overlap eigenvalues          ... 1.000e-08
Number of eigenvalues below threshold      ... 0
Time for construction of square roots      ...    0.230 sec
Total time needed                          ...    0.249 sec

--------------
SCF ITERATIONS
--------------
ITER       Energy         Delta-E        Max-DP      RMS-DP      [F,P]     Damp
               ***  Starting incremental Fock matrix formation  ***
  0    -99.9116014885   0.000000000000 0.00003250  0.00000134  0.0002759 0.7000
  1    -99.9116015209  -0.000000032412 0.00003000  0.00000123  0.0002188 0.7000
                               ***Turning on DIIS***
  2    -99.9116015464  -0.000000025419 0.00007949  0.00000329  0.0001659 0.0000
  3    -99.9116003897   0.000001156646 0.00001205  0.00000058  0.0000239 0.0000
  4    -99.9116021217  -0.000001731990 0.00000205  0.00000007  0.0000013 0.0000
                            ***DIIS convergence achieved***

               *****************************************************
               *                     SUCCESS                       *
               *           SCF CONVERGED AFTER   5 CYCLES          *
               *****************************************************

Total Energy       :          -99.91160223 Eh           -2718.73291 eV
  Last Energy change         ...   -1.1219e-07  Tolerance :   1.0000e-08
  Last MAX-Density change    ...    5.4020e-07  Tolerance :   1.0000e-07
             **** THE GBW FILE WAS UPDATED (uhf.gbw) ****
             **** DENSITY uhf.scfp WAS UPDATED ****
             **** ENERGY FILE WAS UPDATED (uhf.en.tmp) ****
----------------------
UHF SPIN CONTAMINATION
----------------------

Expectation value of <S**2>     :     1.003679
Ideal value S*(S+1) for S=0.0   :     0.000000
Deviation                       :     1.003679

             **** THE GBW FILE WAS UPDATED (uhf.gbw) ****
             **** DENSITY uhf.scfp WAS UPDATED ****
Total SCF time: 0 days 0 hours 0 min 7 sec 

Maximum memory used throughout the entire SCF-calculation: 226.6 MB

-------------------------   --------------------
FINAL SINGLE POINT ENERGY       -99.911602233892
-------------------------   --------------------

Storing actual gbw-file in uhf.002.gbw ... done

                            ***************************************
                            *     ORCA property calculations      *
                            ***************************************

                                    ---------------------
                                    Active property flags
                                    ---------------------
   (+) Dipole Moment


------------------------------------------------------------------------------
                       ORCA ELECTRIC PROPERTIES CALCULATION
------------------------------------------------------------------------------

Dipole Moment Calculation                       ... on
Quadrupole Moment Calculation                   ... off
Polarizability Calculation                      ... off
GBWName                                         ... uhf.gbw
Electron density                                ... uhf.scfp
The origin for moment calculation is the CENTER OF MASS  = ( 0.000000,  0.000000  6.993321)

-------------
DIPOLE MOMENT
-------------
                                X             Y             Z
Electronic contribution:      0.00000      -0.00000       3.65472
Nuclear contribution   :      0.00000       0.00000      -3.65384
                        -----------------------------------------
Total Dipole Moment    :      0.00000      -0.00000       0.00088
                        -----------------------------------------
Magnitude (a.u.)       :      0.00088
Magnitude (Debye)      :      0.00223



--------------------
Rotational spectrum 
--------------------
 
Rotational constants in cm-1:     0.000000     1.159618     1.159618 
Rotational constants in MHz :     0.000000 34764.463416 34764.463416 

 Dipole components along the rotational axes: 
x,y,z [a.u.] :     0.000879    -0.000000     0.000000 
x,y,z [Debye]:     0.002234    -0.000000     0.000000 

 

         *************************************************************
                                TRAJECTORY STEP   3
                  R  :   3.79411765
         *************************************************************
---------------------------------
CARTESIAN COORDINATES (ANGSTROEM)
---------------------------------
  H      0.000000    0.000000    0.000000
  F      0.000000    0.000000    3.794118

----------------------------
CARTESIAN COORDINATES (A.U.)
----------------------------
  NO LB      ZA    FRAG     MASS         X           Y           Z
   0 H     1.0000    0     1.008    0.000000    0.000000    0.000000
   1 F     9.0000    0    18.998    0.000000    0.000000    7.169843

--------------------------------
INTERNAL COORDINATES (ANGSTROEM)
--------------------------------
 H      0   0   0     0.000000000000     0.00000000     0.00000000
 F      1   0   0     3.794117647059     0.00000000     0.00000000

---------------------------
INTERNAL COORDINATES (A.U.)
---------------------------
 H      0   0   0     0.000000000000     0.00000000     0.00000000
 F      1   0   0     7.169843272819     0.00000000     0.00000000

------------------------------------------------------------------------------
                   ___                                                        
                  /   \      - P O W E R E D   B Y -                         
                 /     \                                                     
                 |  |  |   _    _      __       _____    __    __             
                 |  |  |  | |  | |    /  \     |  _  \  |  |  /  |          
                  \  \/   | |  | |   /    \    | | | |  |  | /  /          
                 / \  \   | |__| |  /  /\  \   | |_| |  |  |/  /          
                |  |  |   |  __  | /  /__\  \  |    /   |      \           
                |  |  |   | |  | | |   __   |  |    \   |  |\   \          
                \     /   | |  | | |  |  |  |  | |\  \  |  | \   \       
                 \___/    |_|  |_| |__|  |__|  |_| \__\ |__|  \__/        
                                                                              
                      - O R C A' S   B I G   F R I E N D -                    
                                      &                                       
                       - I N T E G R A L  F E E D E R -                       
                                                                              
 v1 FN, 2020, v2 2021                                                         
------------------------------------------------------------------------------


Reading SHARK input file uhf.SHARKINP.tmp ... ok
----------------------
SHARK INTEGRAL PACKAGE
----------------------

Number of atoms                             ...      2
Number of basis functions                   ...     37
Number of shells                            ...     15
Maximum angular momentum                    ...      3
Integral batch strategy                     ... SHARK/LIBINT Hybrid
RI-J (if used) integral strategy            ... SPLIT-RIJ (Revised 2003 algorithm where possible)
Printlevel                                  ...      1
Contraction scheme used                     ... SEGMENTED contraction
Coulomb Range Separation                    ... NOT USED
Exchange Range Separation                   ... NOT USED
Finite Nucleus Model                        ... NOT USED
Auxiliary Coulomb fitting basis             ... NOT available
Auxiliary J/K fitting basis                 ... NOT available
Auxiliary Correlation fitting basis         ... NOT available
Auxiliary 'external' fitting basis          ... NOT available
Integral threshold                          ...     2.500000e-11
Primitive cut-off                           ...     2.500000e-12
Primitive pair pre-selection threshold      ...     2.500000e-12

Calculating pre-screening integrals         ... done (  0.1 sec) Dimension = 15
Organizing shell pair data                  ... done (  0.2 sec)
Shell pair information
Total number of shell pairs                 ...       120
Shell pairs after pre-screening             ...       111
Total number of primitive shell pairs       ...       376
Primitive shell pairs kept                  ...       313
          la=0 lb=0:     33 shell pairs
          la=1 lb=0:     29 shell pairs
          la=1 lb=1:     10 shell pairs
          la=2 lb=0:     15 shell pairs
          la=2 lb=1:      7 shell pairs
          la=2 lb=2:      3 shell pairs
          la=3 lb=0:      7 shell pairs
          la=3 lb=1:      4 shell pairs
          la=3 lb=2:      2 shell pairs
          la=3 lb=3:      1 shell pairs

Calculating one electron integrals          ... done (  0.0 sec)
Calculating Nuclear repulsion               ... done (  0.0 sec) ENN=      1.255257563874 Eh

SHARK setup successfully completed in   1.3 seconds

Maximum memory used throughout the entire GTOINT-calculation: 12.5 MB

Diagonalization of the overlap matrix:
Smallest eigenvalue                        ... 3.080e-02
Time for diagonalization                   ...    0.001 sec
Threshold for overlap eigenvalues          ... 1.000e-08
Number of eigenvalues below threshold      ... 0
Time for construction of square roots      ...    0.076 sec
Total time needed                          ...    0.103 sec

--------------
SCF ITERATIONS
--------------
ITER       Energy         Delta-E        Max-DP      RMS-DP      [F,P]     Damp
               ***  Starting incremental Fock matrix formation  ***
  0    -99.9115946334   0.000000000000 0.00003256  0.00000149  0.0002969 0.7000
  1    -99.9115946760  -0.000000042630 0.00003025  0.00000135  0.0002352 0.7000
                               ***Turning on DIIS***
  2    -99.9115947094  -0.000000033329 0.00008053  0.00000360  0.0001784 0.0000
  3    -99.9115933193   0.000001390098 0.00001292  0.00000066  0.0000262 0.0000
  4    -99.9115954735  -0.000002154186 0.00000259  0.00000009  0.0000018 0.0000
                            ***DIIS convergence achieved***

               *****************************************************
               *                     SUCCESS                       *
               *           SCF CONVERGED AFTER   5 CYCLES          *
               *****************************************************

Total Energy       :          -99.91159552 Eh           -2718.73273 eV
  Last Energy change         ...   -4.1907e-08  Tolerance :   1.0000e-08
  Last MAX-Density change    ...    6.9071e-07  Tolerance :   1.0000e-07
             **** THE GBW FILE WAS UPDATED (uhf.gbw) ****
             **** DENSITY uhf.scfp WAS UPDATED ****
             **** ENERGY FILE WAS UPDATED (uhf.en.tmp) ****
----------------------
UHF SPIN CONTAMINATION
----------------------

Expectation value of <S**2>     :     1.003678
Ideal value S*(S+1) for S=0.0   :     0.000000
Deviation                       :     1.003678

             **** THE GBW FILE WAS UPDATED (uhf.gbw) ****
             **** DENSITY uhf.scfp WAS UPDATED ****
Total SCF time: 0 days 0 hours 0 min 6 sec 

Maximum memory used throughout the entire SCF-calculation: 226.6 MB

-------------------------   --------------------
FINAL SINGLE POINT ENERGY       -99.911595515368
-------------------------   --------------------

Storing actual gbw-file in uhf.003.gbw ... done

                            ***************************************
                            *     ORCA property calculations      *
                            ***************************************

                                    ---------------------
                                    Active property flags
                                    ---------------------
   (+) Dipole Moment


------------------------------------------------------------------------------
                       ORCA ELECTRIC PROPERTIES CALCULATION
------------------------------------------------------------------------------

Dipole Moment Calculation                       ... on
Quadrupole Moment Calculation                   ... off
Polarizability Calculation                      ... off
GBWName                                         ... uhf.gbw
Electron density                                ... uhf.scfp
The origin for moment calculation is the CENTER OF MASS  = ( 0.000000,  0.000000  6.808592)

-------------
DIPOLE MOMENT
-------------
                                X             Y             Z
Electronic contribution:      0.00000      -0.00000       3.55845
Nuclear contribution   :      0.00000       0.00000      -3.55733
                        -----------------------------------------
Total Dipole Moment    :      0.00000      -0.00000       0.00112
                        -----------------------------------------
Magnitude (a.u.)       :      0.00112
Magnitude (Debye)      :      0.00284



--------------------
Rotational spectrum 
--------------------
 
Rotational constants in cm-1:     0.000000     1.223396     1.223396 
Rotational constants in MHz :     0.000000 36676.498459 36676.498459 

 Dipole components along the rotational axes: 
x,y,z [a.u.] :     0.001119    -0.000000     0.000000 
x,y,z [Debye]:     0.002845    -0.000000     0.000000 

 

         *************************************************************
                                TRAJECTORY STEP   4
                  R  :   3.69117647
         *************************************************************
---------------------------------
CARTESIAN COORDINATES (ANGSTROEM)
---------------------------------
  H      0.000000    0.000000    0.000000
  F      0.000000    0.000000    3.691176

----------------------------
CARTESIAN COORDINATES (A.U.)
----------------------------
  NO LB      ZA    FRAG     MASS         X           Y           Z
   0 H     1.0000    0     1.008    0.000000    0.000000    0.000000
   1 F     9.0000    0    18.998    0.000000    0.000000    6.975313

--------------------------------
INTERNAL COORDINATES (ANGSTROEM)
--------------------------------
 H      0   0   0     0.000000000000     0.00000000     0.00000000
 F      1   0   0     3.691176470588     0.00000000     0.00000000

---------------------------
INTERNAL COORDINATES (A.U.)
---------------------------
 H      0   0   0     0.000000000000     0.00000000     0.00000000
 F      1   0   0     6.975312641386     0.00000000     0.00000000

------------------------------------------------------------------------------
                   ___                                                        
                  /   \      - P O W E R E D   B Y -                         
                 /     \                                                     
                 |  |  |   _    _      __       _____    __    __             
                 |  |  |  | |  | |    /  \     |  _  \  |  |  /  |          
                  \  \/   | |  | |   /    \    | | | |  |  | /  /          
                 / \  \   | |__| |  /  /\  \   | |_| |  |  |/  /          
                |  |  |   |  __  | /  /__\  \  |    /   |      \           
                |  |  |   | |  | | |   __   |  |    \   |  |\   \          
                \     /   | |  | | |  |  |  |  | |\  \  |  | \   \       
                 \___/    |_|  |_| |__|  |__|  |_| \__\ |__|  \__/        
                                                                              
                      - O R C A' S   B I G   F R I E N D -                    
                                      &                                       
                       - I N T E G R A L  F E E D E R -                       
                                                                              
 v1 FN, 2020, v2 2021                                                         
------------------------------------------------------------------------------


Reading SHARK input file uhf.SHARKINP.tmp ... ok
----------------------
SHARK INTEGRAL PACKAGE
----------------------

Number of atoms                             ...      2
Number of basis functions                   ...     37
Number of shells                            ...     15
Maximum angular momentum                    ...      3
Integral batch strategy                     ... SHARK/LIBINT Hybrid
RI-J (if used) integral strategy            ... SPLIT-RIJ (Revised 2003 algorithm where possible)
Printlevel                                  ...      1
Contraction scheme used                     ... SEGMENTED contraction
Coulomb Range Separation                    ... NOT USED
Exchange Range Separation                   ... NOT USED
Finite Nucleus Model                        ... NOT USED
Auxiliary Coulomb fitting basis             ... NOT available
Auxiliary J/K fitting basis                 ... NOT available
Auxiliary Correlation fitting basis         ... NOT available
Auxiliary 'external' fitting basis          ... NOT available
Integral threshold                          ...     2.500000e-11
Primitive cut-off                           ...     2.500000e-12
Primitive pair pre-selection threshold      ...     2.500000e-12

Calculating pre-screening integrals         ... done (  0.1 sec) Dimension = 15
Organizing shell pair data                  ... done (  0.4 sec)
Shell pair information
Total number of shell pairs                 ...       120
Shell pairs after pre-screening             ...       112
Total number of primitive shell pairs       ...       376
Primitive shell pairs kept                  ...       315
          la=0 lb=0:     33 shell pairs
          la=1 lb=0:     29 shell pairs
          la=1 lb=1:     10 shell pairs
          la=2 lb=0:     15 shell pairs
          la=2 lb=1:      8 shell pairs
          la=2 lb=2:      3 shell pairs
          la=3 lb=0:      7 shell pairs
          la=3 lb=1:      4 shell pairs
          la=3 lb=2:      2 shell pairs
          la=3 lb=3:      1 shell pairs

Calculating one electron integrals          ... done (  0.0 sec)
Calculating Nuclear repulsion               ... done (  0.1 sec) ENN=      1.290264746931 Eh

SHARK setup successfully completed in   1.4 seconds

Maximum memory used throughout the entire GTOINT-calculation: 12.5 MB

Diagonalization of the overlap matrix:
Smallest eigenvalue                        ... 3.077e-02
Time for diagonalization                   ...    0.001 sec
Threshold for overlap eigenvalues          ... 1.000e-08
Number of eigenvalues below threshold      ... 0
Time for construction of square roots      ...    0.099 sec
Total time needed                          ...    0.160 sec

--------------
SCF ITERATIONS
--------------
ITER       Energy         Delta-E        Max-DP      RMS-DP      [F,P]     Damp
               ***  Starting incremental Fock matrix formation  ***
  0    -99.9115842923   0.000000000000 0.00003448  0.00000173  0.0003719 0.7000
  1    -99.9115843495  -0.000000057207 0.00003195  0.00000157  0.0002781 0.7000
                               ***Turning on DIIS***
  2    -99.9115843941  -0.000000044588 0.00008554  0.00000416  0.0002101 0.0000
  3    -99.9115828865   0.000001507570 0.00001580  0.00000078  0.0000305 0.0000
  4    -99.9115853714  -0.000002484832 0.00000315  0.00000011  0.0000024 0.0000
                            ***DIIS convergence achieved***

               *****************************************************
               *                     SUCCESS                       *
               *           SCF CONVERGED AFTER   5 CYCLES          *
               *****************************************************

Total Energy       :          -99.91158524 Eh           -2718.73245 eV
  Last Energy change         ...    1.3168e-07  Tolerance :   1.0000e-08
  Last MAX-Density change    ...    8.5002e-07  Tolerance :   1.0000e-07
             **** THE GBW FILE WAS UPDATED (uhf.gbw) ****
             **** DENSITY uhf.scfp WAS UPDATED ****
             **** ENERGY FILE WAS UPDATED (uhf.en.tmp) ****
----------------------
UHF SPIN CONTAMINATION
----------------------

Expectation value of <S**2>     :     1.003677
Ideal value S*(S+1) for S=0.0   :     0.000000
Deviation                       :     1.003677

             **** THE GBW FILE WAS UPDATED (uhf.gbw) ****
             **** DENSITY uhf.scfp WAS UPDATED ****
Total SCF time: 0 days 0 hours 0 min 6 sec 

Maximum memory used throughout the entire SCF-calculation: 226.6 MB

-------------------------   --------------------
FINAL SINGLE POINT ENERGY       -99.911585239679
-------------------------   --------------------

Storing actual gbw-file in uhf.004.gbw ... done

                            ***************************************
                            *     ORCA property calculations      *
                            ***************************************

                                    ---------------------
                                    Active property flags
                                    ---------------------
   (+) Dipole Moment


------------------------------------------------------------------------------
                       ORCA ELECTRIC PROPERTIES CALCULATION
------------------------------------------------------------------------------

Dipole Moment Calculation                       ... on
[...]
          la=2 lb=1:      8 shell pairs
          la=2 lb=2:      3 shell pairs
          la=3 lb=0:      8 shell pairs
          la=3 lb=1:      4 shell pairs
          la=3 lb=2:      2 shell pairs
          la=3 lb=3:      1 shell pairs

Calculating one electron integrals          ... done (  0.0 sec)
Calculating Nuclear repulsion               ... done (  0.2 sec) ENN=      7.898937840966 Eh

SHARK setup successfully completed in   1.4 seconds

Maximum memory used throughout the entire GTOINT-calculation: 12.5 MB

Diagonalization of the overlap matrix:
Smallest eigenvalue                        ... 5.065e-03
Time for diagonalization                   ...    0.000 sec
Threshold for overlap eigenvalues          ... 1.000e-08
Number of eigenvalues below threshold      ... 0
Time for construction of square roots      ...    0.044 sec
Total time needed                          ...    0.068 sec

--------------
SCF ITERATIONS
--------------
ITER       Energy         Delta-E        Max-DP      RMS-DP      [F,P]     Damp
               ***  Starting incremental Fock matrix formation  ***
  0    -99.7946855241   0.000000000000 0.00790480  0.00066507  0.1037384 0.7000
  1    -99.7974468994  -0.002761375355 0.00604691  0.00050386  0.0737367 0.7000
                               ***Turning on DIIS***
  2    -99.7993697268  -0.001922827392 0.01469792  0.00121471  0.0515947 0.0000
  3    -99.8031267210  -0.003756994215 0.00209910  0.00018158  0.0104964 0.0000
  4    -99.7989230307   0.004203690322 0.00089291  0.00005219  0.0059925 0.0000
  5    -99.8045901576  -0.005667126855 0.00030347  0.00002327  0.0012016 0.0000
  6    -99.8039517986   0.000638358981 0.00014679  0.00000931  0.0005156 0.0000
  7    -99.8041532547  -0.000201456147 0.00001947  0.00000122  0.0000353 0.0000
  8    -99.8041195263   0.000033728421 0.00000443  0.00000026  0.0000056 0.0000
                            ***DIIS convergence achieved***

               *****************************************************
               *                     SUCCESS                       *
               *           SCF CONVERGED AFTER   9 CYCLES          *
               *****************************************************

Total Energy       :          -99.80411880 Eh           -2715.80814 eV
  Last Energy change         ...    7.2418e-07  Tolerance :   1.0000e-08
  Last MAX-Density change    ...    6.2277e-07  Tolerance :   1.0000e-07
             **** THE GBW FILE WAS UPDATED (uhf.gbw) ****
             **** DENSITY uhf.scfp WAS UPDATED ****
             **** ENERGY FILE WAS UPDATED (uhf.en.tmp) ****
----------------------
UHF SPIN CONTAMINATION
----------------------

Expectation value of <S**2>     :     0.000000
Ideal value S*(S+1) for S=0.0   :     0.000000
Deviation                       :     0.000000

             **** THE GBW FILE WAS UPDATED (uhf.gbw) ****
             **** DENSITY uhf.scfp WAS UPDATED ****
Total SCF time: 0 days 0 hours 0 min 7 sec 

Maximum memory used throughout the entire SCF-calculation: 226.7 MB

-------------------------   --------------------
FINAL SINGLE POINT ENERGY       -99.804118802146
-------------------------   --------------------

Storing actual gbw-file in uhf.034.gbw ... done

                            ***************************************
                            *     ORCA property calculations      *
                            ***************************************

                                    ---------------------
                                    Active property flags
                                    ---------------------
   (+) Dipole Moment


------------------------------------------------------------------------------
                       ORCA ELECTRIC PROPERTIES CALCULATION
------------------------------------------------------------------------------

Dipole Moment Calculation                       ... on
Quadrupole Moment Calculation                   ... off
Polarizability Calculation                      ... off
GBWName                                         ... uhf.gbw
Electron density                                ... uhf.scfp
The origin for moment calculation is the CENTER OF MASS  = ( 0.000000,  0.000000  1.081985)

-------------
DIPOLE MOMENT
-------------
                                X             Y             Z
Electronic contribution:     -0.00000       0.00000      -0.00572
Nuclear contribution   :      0.00000       0.00000      -0.56531
                        -----------------------------------------
Total Dipole Moment    :     -0.00000       0.00000      -0.57104
                        -----------------------------------------
Magnitude (a.u.)       :      0.57104
Magnitude (Debye)      :      1.45146



--------------------
Rotational spectrum 
--------------------
 
Rotational constants in cm-1:     0.000000    48.443874    48.443874 
Rotational constants in MHz :     0.000000 1452310.793222 1452310.793222 

 Dipole components along the rotational axes: 
x,y,z [a.u.] :    -0.571036     0.000000    -0.000000 
x,y,z [Debye]:    -1.451459     0.000000    -0.000000 

 

         *************************************************************
                                TRAJECTORY STEP  35
                  R  :   0.50000000
         *************************************************************
---------------------------------
CARTESIAN COORDINATES (ANGSTROEM)
---------------------------------
  H      0.000000    0.000000    0.000000
  F      0.000000    0.000000    0.500000

----------------------------
CARTESIAN COORDINATES (A.U.)
----------------------------
  NO LB      ZA    FRAG     MASS         X           Y           Z
   0 H     1.0000    0     1.008    0.000000    0.000000    0.000000
   1 F     9.0000    0    18.998    0.000000    0.000000    0.944863

--------------------------------
INTERNAL COORDINATES (ANGSTROEM)
--------------------------------
 H      0   0   0     0.000000000000     0.00000000     0.00000000
 F      1   0   0     0.500000000000     0.00000000     0.00000000

---------------------------
INTERNAL COORDINATES (A.U.)
---------------------------
 H      0   0   0     0.000000000000     0.00000000     0.00000000
 F      1   0   0     0.944863066961     0.00000000     0.00000000

------------------------------------------------------------------------------
                   ___                                                        
                  /   \      - P O W E R E D   B Y -                         
                 /     \                                                     
                 |  |  |   _    _      __       _____    __    __             
                 |  |  |  | |  | |    /  \     |  _  \  |  |  /  |          
                  \  \/   | |  | |   /    \    | | | |  |  | /  /          
                 / \  \   | |__| |  /  /\  \   | |_| |  |  |/  /          
                |  |  |   |  __  | /  /__\  \  |    /   |      \           
                |  |  |   | |  | | |   __   |  |    \   |  |\   \          
                \     /   | |  | | |  |  |  |  | |\  \  |  | \   \       
                 \___/    |_|  |_| |__|  |__|  |_| \__\ |__|  \__/        
                                                                              
                      - O R C A' S   B I G   F R I E N D -                    
                                      &                                       
                       - I N T E G R A L  F E E D E R -                       
                                                                              
 v1 FN, 2020, v2 2021                                                         
------------------------------------------------------------------------------


Reading SHARK input file uhf.SHARKINP.tmp ... ok
----------------------
SHARK INTEGRAL PACKAGE
----------------------

Number of atoms                             ...      2
Number of basis functions                   ...     37
Number of shells                            ...     15
Maximum angular momentum                    ...      3
Integral batch strategy                     ... SHARK/LIBINT Hybrid
RI-J (if used) integral strategy            ... SPLIT-RIJ (Revised 2003 algorithm where possible)
Printlevel                                  ...      1
Contraction scheme used                     ... SEGMENTED contraction
Coulomb Range Separation                    ... NOT USED
Exchange Range Separation                   ... NOT USED
Finite Nucleus Model                        ... NOT USED
Auxiliary Coulomb fitting basis             ... NOT available
Auxiliary J/K fitting basis                 ... NOT available
Auxiliary Correlation fitting basis         ... NOT available
Auxiliary 'external' fitting basis          ... NOT available
Integral threshold                          ...     2.500000e-11
Primitive cut-off                           ...     2.500000e-12
Primitive pair pre-selection threshold      ...     2.500000e-12

Calculating pre-screening integrals         ... done (  0.1 sec) Dimension = 15
Organizing shell pair data                  ... done (  0.2 sec)
Shell pair information
Total number of shell pairs                 ...       120
Shell pairs after pre-screening             ...       120
Total number of primitive shell pairs       ...       376
Primitive shell pairs kept                  ...       373
          la=0 lb=0:     36 shell pairs
          la=1 lb=0:     32 shell pairs
          la=1 lb=1:     10 shell pairs
          la=2 lb=0:     16 shell pairs
          la=2 lb=1:      8 shell pairs
          la=2 lb=2:      3 shell pairs
          la=3 lb=0:      8 shell pairs
          la=3 lb=1:      4 shell pairs
          la=3 lb=2:      2 shell pairs
          la=3 lb=3:      1 shell pairs

Calculating one electron integrals          ... done (  0.0 sec)
Calculating Nuclear repulsion               ... done (  0.0 sec) ENN=      9.525189749400 Eh

SHARK setup successfully completed in   1.6 seconds

Maximum memory used throughout the entire GTOINT-calculation: 12.5 MB

Diagonalization of the overlap matrix:
Smallest eigenvalue                        ... 3.764e-03
Time for diagonalization                   ...    0.000 sec
Threshold for overlap eigenvalues          ... 1.000e-08
Number of eigenvalues below threshold      ... 0
Time for construction of square roots      ...    0.158 sec
Total time needed                          ...    0.200 sec

--------------
SCF ITERATIONS
--------------
ITER       Energy         Delta-E        Max-DP      RMS-DP      [F,P]     Damp
               ***  Starting incremental Fock matrix formation  ***
  0    -99.3750499053   0.000000000000 0.01032244  0.00067884  0.1407788 0.7000
  1    -99.3784315730  -0.003381667767 0.00790431  0.00052089  0.1004098 0.7000
                               ***Turning on DIIS***
  2    -99.3807441819  -0.002312608831 0.01916328  0.00125996  0.0705862 0.0000
  3    -99.3863809107  -0.005636728822 0.00270410  0.00020640  0.0109529 0.0000
  4    -99.3813403658   0.005040544875 0.00084469  0.00005991  0.0055145 0.0000
  5    -99.3871361216  -0.005795755803 0.00049664  0.00003144  0.0009484 0.0000
  6    -99.3859890594   0.001147062224 0.00006861  0.00000567  0.0003508 0.0000
  7    -99.3863205721  -0.000331512646 0.00000743  0.00000057  0.0000224 0.0000
  8    -99.3862935661   0.000027005948 0.00000230  0.00000015  0.0000054 0.0000
                            ***DIIS convergence achieved***

               *****************************************************
               *                     SUCCESS                       *
               *           SCF CONVERGED AFTER   9 CYCLES          *
               *****************************************************

Total Energy       :          -99.38629569 Eh           -2704.43860 eV
  Last Energy change         ...   -2.1265e-06  Tolerance :   1.0000e-08
  Last MAX-Density change    ...    4.0795e-07  Tolerance :   1.0000e-07
             **** THE GBW FILE WAS UPDATED (uhf.gbw) ****
             **** DENSITY uhf.scfp WAS UPDATED ****
             **** ENERGY FILE WAS UPDATED (uhf.en.tmp) ****
----------------------
UHF SPIN CONTAMINATION
----------------------

Expectation value of <S**2>     :     0.000000
Ideal value S*(S+1) for S=0.0   :     0.000000
Deviation                       :     0.000000

             **** THE GBW FILE WAS UPDATED (uhf.gbw) ****
             **** DENSITY uhf.scfp WAS UPDATED ****
Total SCF time: 0 days 0 hours 0 min 8 sec 

Maximum memory used throughout the entire SCF-calculation: 226.7 MB

-------------------------   --------------------
FINAL SINGLE POINT ENERGY       -99.386295692648
-------------------------   --------------------

Storing actual gbw-file in uhf.035.gbw ... done

                            ***************************************
                            *     ORCA property calculations      *
                            ***************************************

                                    ---------------------
                                    Active property flags
                                    ---------------------
   (+) Dipole Moment


------------------------------------------------------------------------------
                       ORCA ELECTRIC PROPERTIES CALCULATION
------------------------------------------------------------------------------

Dipole Moment Calculation                       ... on
Quadrupole Moment Calculation                   ... off
Polarizability Calculation                      ... off
GBWName                                         ... uhf.gbw
Electron density                                ... uhf.scfp
The origin for moment calculation is the CENTER OF MASS  = ( 0.000000,  0.000000  0.897256)

-------------
DIPOLE MOMENT
-------------
                                X             Y             Z
Electronic contribution:     -0.00000       0.00000      -0.04153
Nuclear contribution   :      0.00000       0.00000      -0.46879
                        -----------------------------------------
Total Dipole Moment    :     -0.00000       0.00000      -0.51033
                        -----------------------------------------
Magnitude (a.u.)       :      0.51033
Magnitude (Debye)      :      1.29715



--------------------
Rotational spectrum 
--------------------
 
Rotational constants in cm-1:     0.000000    70.444768    70.444768 
Rotational constants in MHz :     0.000000 2111881.006407 2111881.006407 

 Dipole components along the rotational axes: 
x,y,z [a.u.] :    -0.510328     0.000000    -0.000000 
x,y,z [Debye]:    -1.297150     0.000000    -0.000000 

 
                              **** TRAJECTORY DONE ***

                         SUMMARY OF THE CALCULATED SURFACE

------------------
TRAJECTORY RESULTS
------------------

Column   1: R

The Calculated Surface using the 'Actual Energy'
   4.00000000 -99.91160760
   3.89705882 -99.91160223
   3.79411765 -99.91159552
   3.69117647 -99.91158524
   3.58823529 -99.91156991
   3.48529412 -99.91154746
   3.38235294 -99.91151511
   3.27941176 -99.91146954
   3.17647059 -99.91140456
   3.07352941 -99.91131199
   2.97058824 -99.91117914
   2.86764706 -99.91099294
   2.76470588 -99.91073173
   2.66176471 -99.91036741
   2.55882353 -99.90986203
   2.45588235 -99.90916380
   2.35294118 -99.90820336
   2.25000000 -99.90688811
   2.14705882 -99.90509640
   2.04411765 -99.90267063
   1.94117647 -99.89940842
   1.83823529 -99.89505162
   1.73529412 -99.88927285
   1.63235294 -99.88166298
   1.52941176 -99.87172079
   1.42647059 -99.85884922
   1.32352941 -99.84237834
   1.22058824 -99.82164577
   1.11764706 -99.79615417
   1.01470588 -99.76548703
   0.91176471 -99.72738275
   0.80882353 -99.67175837
   0.70588235 -99.98285371
   0.60294118 -99.80411880
   0.50000000 -99.38629569

                        *******************************
                        *   FIT OF THE ACT-ENERGY PES *
                        *******************************
-------------------------------
POTENTIAL ENERGY SURFACE =   0
-------------------------------

Minimum found after 21 iterations
Equilibrium distance and its energy from the interpolated PES:
  Re      =   0.68794 Angstroem  (  1.30002 Bohr)
  E(Re)   =   -99.995330 Eh 
  dE/dR   = -1.128e-07 (-5.587e-01 CHEB)
  d2E/dR2 =   20.508043 ( -14.985652 CHEB) (   0.656789 NUM)
  d3E/dR3 =  106.197149 (1199.567967 CHEB)

Spectroscopic constants:
  we =   23883.9 cm**-1 (based on SPLINE)
  we =      -nan cm**-1 (based on CHEB)
  we =    4274.2 cm**-1 (based on NUM)

Performing Morse fit ...
Morse-Fit Results:
 Te(adiabatic)   =   24851.6 cm**-1         =  3.081 eV
 d2E/dR**2 (Morse)=      0.009370381 
 d3E/dR**3 (Morse)=     -0.149582698 
 d4E/dR**4 (Morse)=      1.857210060 
 E0               =    -99.882097638 Eh  RMS=2.47e-05
 Re               =   0.89991 Angstroem      =  1.70059 Bohr RMS=8.89e-04)
 De(Morse)        =   0.00450 eV             =     36.3 cm**-1 RMS=1.04e-06
 D0(Morse)        =  -0.02715 eV
 beta             =   5.32112 au          RMS=4.21e-03
 we               =    510.5 cm**-1
 wexe             =   1793.2 cm**-1
 Displacement   =    0.2120 Angstroem      =  0.40057 Bohr

The Calculated Surface using the SCF energy
   4.00000000 -99.91160760
   3.89705882 -99.91160223
   3.79411765 -99.91159552
   3.69117647 -99.91158524
   3.58823529 -99.91156991
   3.48529412 -99.91154746
   3.38235294 -99.91151511
   3.27941176 -99.91146954
   3.17647059 -99.91140456
   3.07352941 -99.91131199
   2.97058824 -99.91117914
   2.86764706 -99.91099294
   2.76470588 -99.91073173
   2.66176471 -99.91036741
   2.55882353 -99.90986203
   2.45588235 -99.90916380
   2.35294118 -99.90820336
   2.25000000 -99.90688811
   2.14705882 -99.90509640
   2.04411765 -99.90267063
   1.94117647 -99.89940842
   1.83823529 -99.89505162
   1.73529412 -99.88927285
   1.63235294 -99.88166298
   1.52941176 -99.87172079
   1.42647059 -99.85884922
   1.32352941 -99.84237834
   1.22058824 -99.82164577
   1.11764706 -99.79615417
   1.01470588 -99.76548703
   0.91176471 -99.72738275
   0.80882353 -99.67175837
   0.70588235 -99.98285371
   0.60294118 -99.80411880
   0.50000000 -99.38629569

                        *******************************
                        *       FIT OF THE SCF PES    *
                        *******************************
-------------------------------
POTENTIAL ENERGY SURFACE =   0
-------------------------------

Minimum found after 21 iterations
Equilibrium distance and its energy from the interpolated PES:
  Re      =   0.68794 Angstroem  (  1.30002 Bohr)
  E(Re)   =   -99.995330 Eh 
  dE/dR   = -1.128e-07 (-5.587e-01 CHEB)
  d2E/dR2 =   20.508043 ( -14.985652 CHEB) (   0.656789 NUM)
  d3E/dR3 =  106.197149 (1199.567967 CHEB)

Spectroscopic constants:
  we =   23883.9 cm**-1 (based on SPLINE)
  we =      -nan cm**-1 (based on CHEB)
  we =    4274.2 cm**-1 (based on NUM)

Performing Morse fit ...
Morse-Fit Results:
 Te(adiabatic)   =   24851.6 cm**-1         =  3.081 eV
 d2E/dR**2 (Morse)=      0.009370381 
 d3E/dR**3 (Morse)=     -0.149582698 
 d4E/dR**4 (Morse)=      1.857210060 
 E0               =    -99.882097638 Eh  RMS=2.47e-05
 Re               =   0.89991 Angstroem      =  1.70059 Bohr RMS=8.89e-04)
 De(Morse)        =   0.00450 eV             =     36.3 cm**-1 RMS=1.04e-06
 D0(Morse)        =  -0.02715 eV
 beta             =   5.32112 au          RMS=4.21e-03
 we               =    510.5 cm**-1
 wexe             =   1793.2 cm**-1
 Displacement   =    0.2120 Angstroem      =  0.40057 Bohr


Timings for individual modules:

Sum of individual times         ...      373.494 sec (=   6.225 min)
GTO integral calculation        ...       56.726 sec (=   0.945 min)  15.2 %
SCF iterations                  ...      316.768 sec (=   5.279 min)  84.8 %
                             ****ORCA TERMINATED NORMALLY****
TOTAL RUN TIME: 0 days 0 hours 7 minutes 21 seconds 747 msec
