
                                 *****************
                                 * O   R   C   A *
                                 *****************

                                            #,                                       
                                            ###                                      
                                            ####                                     
                                            #####                                    
                                            ######                                   
                                           ########,                                 
                                     ,,################,,,,,                         
                               ,,#################################,,                 
                          ,,##########################################,,             
                       ,#########################################, ''#####,          
                    ,#############################################,,   '####,        
                  ,##################################################,,,,####,       
                ,###########''''           ''''###############################       
              ,#####''   ,,,,##########,,,,          '''####'''          '####       
            ,##' ,,,,###########################,,,                        '##       
           ' ,,###''''                  '''############,,,                           
         ,,##''                                '''############,,,,        ,,,,,,###''
      ,#''                                            '''#######################'''  
     '                                                          ''''####''''         
             ,#######,   #######,   ,#######,      ##                                
            ,#'     '#,  ##    ##  ,#'     '#,    #''#        ######   ,####,        
            ##       ##  ##   ,#'  ##            #'  '#       #        #'  '#        
            ##       ##  #######   ##           ,######,      #####,   #    #        
            '#,     ,#'  ##    ##  '#,     ,#' ,#      #,         ##   #,  ,#        
             '#######'   ##     ##  '#######'  #'      '#     #####' # '####'        



                  #######################################################
                  #                        -***-                        #
                  #          Department of theory and spectroscopy      #
                  #    Directorship and core code : Frank Neese         #
                  #        Max Planck Institute fuer Kohlenforschung    #
                  #                Kaiser Wilhelm Platz 1               #
                  #                 D-45470 Muelheim/Ruhr               #
                  #                      Germany                        #
                  #                                                     #
                  #                  All rights reserved                #
                  #                        -***-                        #
                  #######################################################


                         Program Version 5.0.2 -  RELEASE  -


 With contributions from (in alphabetic order):
   Daniel Aravena         : Magnetic Suceptibility
   Michael Atanasov       : Ab Initio Ligand Field Theory (pilot matlab implementation)
   Alexander A. Auer      : GIAO ZORA, VPT2 properties, NMR spectrum
   Ute Becker             : Parallelization
   Giovanni Bistoni       : ED, misc. LED, open-shell LED, HFLD
   Martin Brehm           : Molecular dynamics
   Dmytro Bykov           : SCF Hessian
   Vijay G. Chilkuri      : MRCI spin determinant printing, contributions to CSF-ICE
   Dipayan Datta          : RHF DLPNO-CCSD density
   Achintya Kumar Dutta   : EOM-CC, STEOM-CC
   Dmitry Ganyushin       : Spin-Orbit,Spin-Spin,Magnetic field MRCI
   Miquel Garcia          : C-PCM and meta-GGA Hessian, CC/C-PCM, Gaussian charge scheme
   Yang Guo               : DLPNO-NEVPT2, F12-NEVPT2, CIM, IAO-localization
   Andreas Hansen         : Spin unrestricted coupled pair/coupled cluster methods
   Benjamin Helmich-Paris : MC-RPA, TRAH-SCF, COSX integrals
   Lee Huntington         : MR-EOM, pCC
   Robert Izsak           : Overlap fitted RIJCOSX, COSX-SCS-MP3, EOM
   Marcus Kettner         : VPT2
   Christian Kollmar      : KDIIS, OOCD, Brueckner-CCSD(T), CCSD density, CASPT2, CASPT2-K
   Simone Kossmann        : Meta GGA functionals, TD-DFT gradient, OOMP2, MP2 Hessian
   Martin Krupicka        : Initial AUTO-CI
   Lucas Lang             : DCDCAS
   Marvin Lechner         : AUTO-CI (C++ implementation), FIC-MRCC
   Dagmar Lenk            : GEPOL surface, SMD
   Dimitrios Liakos       : Extrapolation schemes; Compound Job, initial MDCI parallelization
   Dimitrios Manganas     : Further ROCIS development; embedding schemes
   Dimitrios Pantazis     : SARC Basis sets
   Anastasios Papadopoulos: AUTO-CI, single reference methods and gradients
   Taras Petrenko         : DFT Hessian,TD-DFT gradient, ASA, ECA, R-Raman, ABS, FL, XAS/XES, NRVS
   Peter Pinski           : DLPNO-MP2, DLPNO-MP2 Gradient
   Christoph Reimann      : Effective Core Potentials
   Marius Retegan         : Local ZFS, SOC
   Christoph Riplinger    : Optimizer, TS searches, QM/MM, DLPNO-CCSD(T), (RO)-DLPNO pert. Triples
   Tobias Risthaus        : Range-separated hybrids, TD-DFT gradient, RPA, STAB
   Michael Roemelt        : Original ROCIS implementation
   Masaaki Saitow         : Open-shell DLPNO-CCSD energy and density
   Barbara Sandhoefer     : DKH picture change effects
   Avijit Sen             : IP-ROCIS
   Kantharuban Sivalingam : CASSCF convergence, NEVPT2, FIC-MRCI
   Bernardo de Souza      : ESD, SOC TD-DFT
   Georgi Stoychev        : AutoAux, RI-MP2 NMR, DLPNO-MP2 response
   Willem Van den Heuvel  : Paramagnetic NMR
   Boris Wezisla          : Elementary symmetry handling
   Frank Wennmohs         : Technical directorship


 We gratefully acknowledge several colleagues who have allowed us to
 interface, adapt or use parts of their codes:
   Stefan Grimme, W. Hujo, H. Kruse, P. Pracht,  : VdW corrections, initial TS optimization,
                  C. Bannwarth, S. Ehlert          DFT functionals, gCP, sTDA/sTD-DF
   Ed Valeev, F. Pavosevic, A. Kumar             : LibInt (2-el integral package), F12 methods
   Garnet Chan, S. Sharma, J. Yang, R. Olivares  : DMRG
   Ulf Ekstrom                                   : XCFun DFT Library
   Mihaly Kallay                                 : mrcc  (arbitrary order and MRCC methods)
   Jiri Pittner, Ondrej Demel                    : Mk-CCSD
   Frank Weinhold                                : gennbo (NPA and NBO analysis)
   Christopher J. Cramer and Donald G. Truhlar   : smd solvation model
   Lars Goerigk                                  : TD-DFT with DH, B97 family of functionals
   V. Asgeirsson, H. Jonsson                     : NEB implementation
   FAccTs GmbH                                   : IRC, NEB, NEB-TS, DLPNO-Multilevel, CI-OPT
                                                   MM, QMMM, 2- and 3-layer-ONIOM, Crystal-QMMM,
                                                   LR-CPCM, SF, NACMEs, symmetry and pop. for TD-DFT,
                                                   nearIR, NL-DFT gradient (VV10), updates on ESD,
                                                   ML-optimized integration grids
   S Lehtola, MJT Oliveira, MAL Marques          : LibXC Library
   Liviu Ungur et al                             : ANISO software


 Your calculation uses the libint2 library for the computation of 2-el integrals
 For citations please refer to: http://libint.valeyev.net

 Your ORCA version has been built with support for libXC version: 5.1.0
 For citations please refer to: https://tddft.org/programs/libxc/

 This ORCA versions uses:
   CBLAS   interface :  Fast vector & matrix operations
   LAPACKE interface :  Fast linear algebra routines
   SCALAPACK package :  Parallel linear algebra routines
   Shared memory     :  Shared parallel matrices
   BLAS/LAPACK       :  OpenBLAS 0.3.15  USE64BITINT DYNAMIC_ARCH NO_AFFINITY Haswell SINGLE_THREADED
        Core in use  :  Haswell
   Copyright (c) 2011-2014, The OpenBLAS Project


================================================================================

----- Orbital basis set information -----
Your calculation utilizes the basis: def2-TZVP
   F. Weigend and R. Ahlrichs, Phys. Chem. Chem. Phys. 7, 3297 (2005).

================================================================================
                                        WARNINGS
                       Please study these warnings very carefully!
================================================================================


INFO   : the flag for use of the SHARK integral package has been found!

================================================================================
                                       INPUT FILE
================================================================================
NAME = rhf.in
|  1> ! RHF def2-TZVP TightSCF
|  2> 
|  3> %paras R= 4.0,0.5,35 end
|  4> 
|  5> * xyz 0 1
|  6> H 0 0 0
|  7> F 0 0 {R}
|  8> **                         ****END OF INPUT****
================================================================================

                       ******************************
                       * Parameter Scan Calculation *
                       ******************************

Trajectory settings:
    -> SCF surface will be mapped

There are 1 parameter(s) to be scanned
             R: range=   4.00000000 ..   0.50000000  steps=   35
There will be   35 energy evaluations


         *************************************************************
                                TRAJECTORY STEP   1
                  R  :   4.00000000
         *************************************************************
---------------------------------
CARTESIAN COORDINATES (ANGSTROEM)
---------------------------------
  H      0.000000    0.000000    0.000000
  F      0.000000    0.000000    4.000000

----------------------------
CARTESIAN COORDINATES (A.U.)
----------------------------
  NO LB      ZA    FRAG     MASS         X           Y           Z
   0 H     1.0000    0     1.008    0.000000    0.000000    0.000000
   1 F     9.0000    0    18.998    0.000000    0.000000    7.558905

--------------------------------
INTERNAL COORDINATES (ANGSTROEM)
--------------------------------
 H      0   0   0     0.000000000000     0.00000000     0.00000000
 F      1   0   0     4.000000000000     0.00000000     0.00000000

---------------------------
INTERNAL COORDINATES (A.U.)
---------------------------
 H      0   0   0     0.000000000000     0.00000000     0.00000000
 F      1   0   0     7.558904535685     0.00000000     0.00000000

---------------------
BASIS SET INFORMATION
---------------------
There are 2 groups of distinct atoms

 Group   1 Type H   : 5s1p contracted to 3s1p pattern {311/1}
 Group   2 Type F   : 11s6p2d1f contracted to 5s3p2d1f pattern {62111/411/11/1}

Atom   0H    basis set group =>   1
Atom   1F    basis set group =>   2
------------------------------------------------------------------------------
                           ORCA GTO INTEGRAL CALCULATION
------------------------------------------------------------------------------
------------------------------------------------------------------------------
                   ___                                                        
                  /   \      - P O W E R E D   B Y -                         
                 /     \                                                     
                 |  |  |   _    _      __       _____    __    __             
                 |  |  |  | |  | |    /  \     |  _  \  |  |  /  |          
                  \  \/   | |  | |   /    \    | | | |  |  | /  /          
                 / \  \   | |__| |  /  /\  \   | |_| |  |  |/  /          
                |  |  |   |  __  | /  /__\  \  |    /   |      \           
                |  |  |   | |  | | |   __   |  |    \   |  |\   \          
                \     /   | |  | | |  |  |  |  | |\  \  |  | \   \       
                 \___/    |_|  |_| |__|  |__|  |_| \__\ |__|  \__/        
                                                                              
                      - O R C A' S   B I G   F R I E N D -                    
                                      &                                       
                       - I N T E G R A L  F E E D E R -                       
                                                                              
 v1 FN, 2020, v2 2021                                                         
------------------------------------------------------------------------------


Reading SHARK input file rhf.SHARKINP.tmp ... ok
----------------------
SHARK INTEGRAL PACKAGE
----------------------

Number of atoms                             ...      2
Number of basis functions                   ...     37
Number of shells                            ...     15
Maximum angular momentum                    ...      3
Integral batch strategy                     ... SHARK/LIBINT Hybrid
RI-J (if used) integral strategy            ... SPLIT-RIJ (Revised 2003 algorithm where possible)
Printlevel                                  ...      1
Contraction scheme used                     ... SEGMENTED contraction
Coulomb Range Separation                    ... NOT USED
Exchange Range Separation                   ... NOT USED
Finite Nucleus Model                        ... NOT USED
Auxiliary Coulomb fitting basis             ... NOT available
Auxiliary J/K fitting basis                 ... NOT available
Auxiliary Correlation fitting basis         ... NOT available
Auxiliary 'external' fitting basis          ... NOT available
Integral threshold                          ...     2.500000e-11
Primitive cut-off                           ...     2.500000e-12
Primitive pair pre-selection threshold      ...     2.500000e-12

Calculating pre-screening integrals         ... done (  0.1 sec) Dimension = 15
Organizing shell pair data                  ... done (  0.1 sec)
Shell pair information
Total number of shell pairs                 ...       120
Shell pairs after pre-screening             ...       109
Total number of primitive shell pairs       ...       376
Primitive shell pairs kept                  ...       311
          la=0 lb=0:     33 shell pairs
          la=1 lb=0:     28 shell pairs
          la=1 lb=1:      9 shell pairs
          la=2 lb=0:     15 shell pairs
          la=2 lb=1:      7 shell pairs
          la=2 lb=2:      3 shell pairs
          la=3 lb=0:      7 shell pairs
          la=3 lb=1:      4 shell pairs
          la=3 lb=2:      2 shell pairs
          la=3 lb=3:      1 shell pairs

Calculating one electron integrals          ... done (  0.0 sec)
Calculating Nuclear repulsion               ... done (  0.1 sec) ENN=      1.190648718675 Eh

SHARK setup successfully completed in   0.8 seconds

Maximum memory used throughout the entire GTOINT-calculation: 12.4 MB
-------------------------------------------------------------------------------
                                 ORCA SCF
-------------------------------------------------------------------------------

------------
SCF SETTINGS
------------
Hamiltonian:
 Ab initio Hamiltonian  Method          .... Hartree-Fock(GTOs)


General Settings:
 Integral files         IntName         .... rhf
 Hartree-Fock type      HFTyp           .... RHF
 Total Charge           Charge          ....    0
 Multiplicity           Mult            ....    1
 Number of Electrons    NEL             ....   10
 Basis Dimension        Dim             ....   37
 Nuclear Repulsion      ENuc            ....      1.1906487187 Eh

Convergence Acceleration:
 DIIS                   CNVDIIS         .... on
   Start iteration      DIISMaxIt       ....    12
   Startup error        DIISStart       ....  0.200000
   # of expansion vecs  DIISMaxEq       ....     5
   Bias factor          DIISBfac        ....   1.050
   Max. coefficient     DIISMaxC        ....  10.000
 Trust-Rad. Augm. Hess. CNVTRAH         .... auto
   Auto Start mean grad. ratio tolernc. ....  1.125000
   Auto Start start iteration           ....    20
   Auto Start num. interpolation iter.  ....    10
   Max. Number of Micro iterations      ....    16
   Max. Number of Macro iterations      .... Maxiter - #DIIS iter
   Number of Davidson start vectors     ....     2
   Converg. threshold I  (grad. norm)   ....   1.000e-05
   Converg. threshold II (energy diff.) ....   1.000e-08
   Grad. Scal. Fac. for Micro threshold ....   0.100
   Minimum threshold for Micro iter.    ....   0.010
   NR start threshold (gradient norm)   ....   0.001
   Initial trust radius                 ....   0.400
   Minimum AH scaling param. (alpha)    ....   1.000
   Maximum AH scaling param. (alpha)    .... 1000.000
   Orbital update algorithm             .... Taylor
   White noise on init. David. guess    .... on
   Maximum white noise                  ....   0.010
   Quad. conv. algorithm                .... NR
 SOSCF                  CNVSOSCF        .... on
   Start iteration      SOSCFMaxIt      ....   150
   Startup grad/error   SOSCFStart      ....  0.003300
 Level Shifting         CNVShift        .... on
   Level shift para.    LevelShift      ....    0.2500
   Turn off err/grad.   ShiftErr        ....    0.0010
 Zerner damping         CNVZerner       .... off
 Static damping         CNVDamp         .... on
   Fraction old density DampFac         ....    0.7000
   Max. Damping (<1)    DampMax         ....    0.9800
   Min. Damping (>=0)   DampMin         ....    0.0000
   Turn off err/grad.   DampErr         ....    0.1000
 Fernandez-Rico         CNVRico         .... off

SCF Procedure:
 Maximum # iterations   MaxIter         ....   125
 SCF integral mode      SCFMode         .... Direct
   Integral package                     .... SHARK and LIBINT hybrid scheme
 Reset frequency        DirectResetFreq ....    20
 Integral Threshold     Thresh          ....  2.500e-11 Eh
 Primitive CutOff       TCut            ....  2.500e-12 Eh

Convergence Tolerance:
 Convergence Check Mode ConvCheckMode   .... Total+1el-Energy
 Convergence forced     ConvForced      .... 0
 Energy Change          TolE            ....  1.000e-08 Eh
 1-El. energy change                    ....  1.000e-05 Eh
 Orbital Gradient       TolG            ....  1.000e-05
 Orbital Rotation angle TolX            ....  1.000e-05
 DIIS Error             TolErr          ....  5.000e-07


Diagonalization of the overlap matrix:
Smallest eigenvalue                        ... 3.084e-02
Time for diagonalization                   ...    0.010 sec
Threshold for overlap eigenvalues          ... 1.000e-08
Number of eigenvalues below threshold      ... 0
Time for construction of square roots      ...    0.061 sec
Total time needed                          ...    0.071 sec

Time for model grid setup =    0.106 sec

------------------------------
INITIAL GUESS: MODEL POTENTIAL
------------------------------
Loading Hartree-Fock densities                     ... done
Calculating cut-offs                               ... done
Initializing the effective Hamiltonian             ... done
Setting up the integral package (SHARK)            ... done
Starting the Coulomb interaction                   ... done (   0.1 sec)
Reading the grid                                   ... done
Mapping shells                                     ... done
Starting the XC term evaluation                    ... done (   0.0 sec)
Transforming the Hamiltonian                       ... done (   0.0 sec)
Diagonalizing the Hamiltonian                      ... done (   0.0 sec)
Back transforming the eigenvectors                 ... done (   0.0 sec)
Now organizing SCF variables                       ... done
                      ------------------
                      INITIAL GUESS DONE (   0.3 sec)
                      ------------------
--------------
SCF ITERATIONS
--------------
ITER       Energy         Delta-E        Max-DP      RMS-DP      [F,P]     Damp
               ***  Starting incremental Fock matrix formation  ***
  0    -99.4681176049   0.000000000000 0.15250022  0.00951204  0.3998980 0.7000
  1    -99.5442598843  -0.076142279362 0.10412917  0.00636792  0.2651529 0.7000
  2    -99.4771620105   0.067097873763 0.06772336  0.00481498  0.2065778 0.7000
                               ***Turning on DIIS***
  3    -99.5466553715  -0.069493360960 0.04740794  0.00315611  0.1290185 0.7000
  4   -100.0566077098  -0.509952338375 0.11061578  0.00731425  0.0993981 0.0000
  5   -101.4728319790  -1.416224269155 0.00071705  0.00005188  0.2321869 0.7000
  6   -101.4653383643   0.007493614714 0.00065168  0.00004736  0.2306610 0.7000
  7   -101.4562686253   0.009069738947 0.00053455  0.00003953  0.2292833 0.7000
  8   -101.4996642279  -0.043395602590 0.00079629  0.00004744  0.2281018 0.7000
  9    -99.5539954642   1.945668763731 0.02941763  0.00231144  0.2293880 0.7000
 10    -99.9366716127  -0.382676148512 0.02197222  0.00186939  0.1364056 0.7000
 11    -99.7828368045   0.153834808203 0.10934545  0.00771622  0.0878646 0.0000
 12    -99.1374658252   0.645370979273 0.01309441  0.00122204  0.1043231 0.7000
 13    -99.0772972790   0.060168546260 0.02107755  0.00174149  0.1131354 0.7000
 14    -98.8509889629   0.226308316058 0.02471791  0.00189021  0.1344745 0.7000
 15    -98.5505918407   0.300397122217 0.02583355  0.00187490  0.1654448 0.7000
 16    -98.6497792019  -0.099187361192 0.01371974  0.00114907  0.2021240 0.7000
 17    -98.5696140544   0.080165147472 0.00744467  0.00067702  0.1988589 0.7000
 18    -98.6100466461  -0.040432591644 0.00665892  0.00046770  0.1860621 0.7000
 19    -98.8413834165  -0.231336770455 0.00803145  0.00067851  0.1674934 0.7000
               *** Restarting incremental Fock matrix formation ***
                                   *** Resetting DIIS ***

 WARNING: the maximum gradient error descreased on average only by a factor   0.9
          during the last 20 iterations

                      *** Initiating the TRAH-SCF procedure ***

 --------------------------------------------------------------------------------------------
   Iter.        energy            ||Error||_2        Shift      TRadius  Mac/Mic        Rej.
 --------------------------------------------------------------------------------------------
    0        -99.627113884188     6.253591e-01                     0.400 (TRAH MAcro)   No
    0     dE    -1.513836e-02     6.853365e-01    -2.9948e-02      0.105 (TRAH MIcro)
    0     dE    -1.744533e-02     7.453279e-02    -3.4439e-02      0.115 (TRAH MIcro)
    0     dE    -1.757364e-02     3.427044e-02    -3.4704e-02      0.113 (TRAH MIcro)
    0     dE    -1.759504e-02     7.580129e-03    -3.4727e-02      0.116 (TRAH MIcro)
    1        -99.643006567052     4.334987e-02                     0.480 (TRAH MAcro)   No
    1     dE    -3.350895e-04     9.049533e-02    -6.6998e-04      0.017 (TRAH MIcro)
    1     dE    -4.692331e-04     1.274096e-02    -9.3785e-04      0.026 (TRAH MIcro)
    1     dE    -4.739978e-04     3.810811e-03    -9.4734e-04      0.026 (TRAH MIcro)
    2        -99.643490488642     3.855486e-03                     0.576 (TRAH MAcro)   No
    2     dE    -3.841005e-07     3.493536e-03    -7.6820e-07      0.001 (TRAH MIcro)
    2     dE    -7.293148e-07     1.044102e-03    -1.4586e-06      0.001 (TRAH MIcro)
    2     dE    -7.757234e-07     5.823727e-04    -1.5514e-06      0.001 (TRAH MIcro)
    2     dE    -7.833958e-07     4.301994e-04    -1.5668e-06      0.001 (TRAH MIcro)
    2     dE    -8.558129e-07     1.211685e-03    -1.7116e-06      0.002 (TRAH MIcro)
    2     dE    -8.830163e-07     1.459545e-04    -1.7660e-06      0.003 (TRAH MIcro)
    3        -99.643491381096     1.485377e-04                           (NR   MAcro)
    3     dE    -3.244228e-10     7.945631e-05                           (NR   MIcro)
    3     dE    -5.759182e-10     3.469101e-05                           (NR   MIcro)
    3     dE    -6.411345e-10     2.897509e-05                           (NR   MIcro)
    3     dE    -1.067505e-09     1.049074e-04                           (NR   MIcro)
    3     dE    -1.360277e-09     2.412972e-05                           (NR   MIcro)
    3     dE    -1.373376e-09     3.996995e-06                           (NR   MIcro)
    3     dE    -1.374059e-09     1.281511e-06                           (NR   MIcro)
    3     dE    -1.374090e-09     1.756859e-07                           (NR   MIcro)
    4        -99.643491382471     2.457062e-07                           (NR   MAcro)

               *****************************************************
               *                     SUCCESS                       *
               *           SCF CONVERGED AFTER  46 CYCLES          *
               *****************************************************


----------------
TOTAL SCF ENERGY
----------------

Total Energy       :          -99.64349138 Eh           -2711.43725 eV

Components:
Nuclear Repulsion  :            1.19064872 Eh              32.39920 eV
Electronic Energy  :         -100.83414010 Eh           -2743.83645 eV
One Electron Energy:         -143.46017190 Eh           -3903.74974 eV
Two Electron Energy:           42.62603180 Eh            1159.91329 eV

Virial components:
Potential Energy   :         -199.21531983 Eh           -5420.92445 eV
Kinetic Energy     :           99.57182845 Eh            2709.48720 eV
Virial Ratio       :            2.00071971


---------------
SCF CONVERGENCE
---------------

  Last Energy change         ...   -1.3749e-09  Tolerance :   1.0000e-08
  Last Orbital Gradient      ...    2.4571e-07  Tolerance :   1.0000e-05
  Last Orbital Rotation      ...    2.6749e-04

             **** THE GBW FILE WAS UPDATED (rhf.gbw) ****
             **** DENSITY rhf.scfp WAS UPDATED ****
             **** ENERGY FILE WAS UPDATED (rhf.en.tmp) ****
             **** THE GBW FILE WAS UPDATED (rhf.gbw) ****
             **** DENSITY rhf.scfp WAS UPDATED ****
----------------
ORBITAL ENERGIES
----------------

  NO   OCC          E(Eh)            E(eV) 
   0   2.0000     -26.218404      -713.4391 
   1   2.0000      -1.419727       -38.6327 
   2   2.0000      -0.545124       -14.8336 
   3   2.0000      -0.545124       -14.8336 
   4   2.0000      -0.375674       -10.2226 
   5   0.0000      -0.234859        -6.3908 
   6   0.0000       0.295457         8.0398 
   7   0.0000       0.746110        20.3027 
   8   0.0000       0.788668        21.4608 
   9   0.0000       0.788668        21.4608 
  10   0.0000       0.806325        21.9412 
  11   0.0000       1.442280        39.2464 
  12   0.0000       1.442280        39.2464 
  13   0.0000       1.443282        39.2737 
  14   0.0000       2.310553        62.8733 
  15   0.0000       2.358577        64.1801 
  16   0.0000       2.360208        64.2245 
  17   0.0000       2.360208        64.2245 
  18   0.0000       2.369118        64.4670 
  19   0.0000       2.369118        64.4670 
  20   0.0000       3.692663       100.4825 
  21   0.0000       3.692663       100.4825 
  22   0.0000       3.700074       100.6841 
  23   0.0000       3.956232       107.6545 
  24   0.0000       7.468147       203.2186 
  25   0.0000       7.472653       203.3412 
  26   0.0000       7.472653       203.3412 
  27   0.0000       7.486207       203.7101 
  28   0.0000       7.486207       203.7101 
  29   0.0000       7.508880       204.3270 
  30   0.0000       7.508880       204.3270 
  31   0.0000       8.927483       242.9292 
  32   0.0000       8.934260       243.1136 
  33   0.0000       8.934260       243.1136 
  34   0.0000       8.955244       243.6846 
  35   0.0000       8.955244       243.6846 
  36   0.0000      58.046167      1579.5165 

                    ********************************
                    * MULLIKEN POPULATION ANALYSIS *
                    ********************************

-----------------------
MULLIKEN ATOMIC CHARGES
-----------------------
   0 H :    0.405736
   1 F :   -0.405736
Sum of atomic charges:   -0.0000000

--------------------------------
MULLIKEN REDUCED ORBITAL CHARGES
--------------------------------
  0 H s       :     0.594259  s :     0.594259
      pz      :     0.000005  p :     0.000005
      px      :     0.000000
      py      :     0.000000
  1 F s       :     4.000184  s :     4.000184
      pz      :     1.405521  p :     5.405501
      px      :     1.999990
      py      :     1.999990
      dz2     :     0.000023  d :     0.000029
      dxz     :     0.000003
      dyz     :     0.000003
      dx2y2   :     0.000000
      dxy     :     0.000000
      f0      :     0.000008  f :     0.000023
      f+1     :     0.000007
      f-1     :     0.000007
      f+2     :     0.000000
      f-2     :     0.000000
      f+3     :     0.000000
      f-3     :     0.000000


                     *******************************
                     * LOEWDIN POPULATION ANALYSIS *
                     *******************************

----------------------
LOEWDIN ATOMIC CHARGES
----------------------
   0 H :    0.406375
   1 F :   -0.406375

-------------------------------
LOEWDIN REDUCED ORBITAL CHARGES
-------------------------------
  0 H s       :     0.593621  s :     0.593621
      pz      :     0.000005  p :     0.000005
      px      :     0.000000
      py      :     0.000000
  1 F s       :     4.000145  s :     4.000145
      pz      :     1.406198  p :     5.406178
      px      :     1.999990
      py      :     1.999990
      dz2     :     0.000023  d :     0.000029
      dxz     :     0.000003
      dyz     :     0.000003
      dx2y2   :     0.000000
      dxy     :     0.000000
      f0      :     0.000008  f :     0.000023
      f+1     :     0.000007
      f-1     :     0.000007
      f+2     :     0.000000
      f-2     :     0.000000
      f+3     :     0.000000
      f-3     :     0.000000


                      *****************************
                      * MAYER POPULATION ANALYSIS *
                      *****************************

  NA   - Mulliken gross atomic population
  ZA   - Total nuclear charge
  QA   - Mulliken gross atomic charge
  VA   - Mayer's total valence
  BVA  - Mayer's bonded valence
  FA   - Mayer's free valence

  ATOM       NA         ZA         QA         VA         BVA        FA
  0 H      0.5943     1.0000     0.4057     0.8354     0.8354    -0.0000
  1 F      9.4057     9.0000    -0.4057     0.8354     0.8354     0.0000

  Mayer bond orders larger than 0.100000
B(  0-H ,  1-F ) :   0.8354 

-------
TIMINGS
-------

Total SCF time: 0 days 0 hours 0 min 13 sec 

Total time                  ....      13.202 sec
Sum of individual times     ....       4.022 sec  ( 30.5%)

Fock matrix formation       ....       2.987 sec  ( 22.6%)
Diagonalization             ....       0.016 sec  (  0.1%)
Density matrix formation    ....       0.001 sec  (  0.0%)
Population analysis         ....       0.196 sec  (  1.5%)
Initial guess               ....       0.234 sec  (  1.8%)
Orbital Transformation      ....       0.007 sec  (  0.1%)
Orbital Orthonormalization  ....       0.000 sec  (  0.0%)
DIIS solution               ....       0.475 sec  (  3.6%)
SOSCF solution              ....       0.000 sec  (  0.0%)

Maximum memory used throughout the entire SCF-calculation: 226.5 MB

-------------------------   --------------------
FINAL SINGLE POINT ENERGY       -99.643491382471
-------------------------   --------------------

Storing actual gbw-file in rhf.001.gbw ... done

                            ***************************************
                            *     ORCA property calculations      *
                            ***************************************

                                    ---------------------
                                    Active property flags
                                    ---------------------
   (+) Dipole Moment


------------------------------------------------------------------------------
                       ORCA ELECTRIC PROPERTIES CALCULATION
------------------------------------------------------------------------------

Dipole Moment Calculation                       ... on
Quadrupole Moment Calculation                   ... off
Polarizability Calculation                      ... off
GBWName                                         ... rhf.gbw
Electron density                                ... rhf.scfp
The origin for moment calculation is the CENTER OF MASS  = ( 0.000000,  0.000000  7.178050)

-------------
DIPOLE MOMENT
-------------
                                X             Y             Z
Electronic contribution:      0.00000       0.00000       0.68331
Nuclear contribution   :      0.00000       0.00000      -3.75036
                        -----------------------------------------
Total Dipole Moment    :      0.00000       0.00000      -3.06705
                        -----------------------------------------
Magnitude (a.u.)       :      3.06705
Magnitude (Debye)      :      7.79581



--------------------
Rotational spectrum 
--------------------
 
Rotational constants in cm-1:     0.000000     1.100699     1.100699 
Rotational constants in MHz :     0.000000 32998.140725 32998.140725 

 Dipole components along the rotational axes: 
x,y,z [a.u.] :    -3.067047     0.000000     0.000000 
x,y,z [Debye]:    -7.795814     0.000000     0.000000 

 

         *************************************************************
                                TRAJECTORY STEP   2
                  R  :   3.89705882
         *************************************************************
---------------------------------
CARTESIAN COORDINATES (ANGSTROEM)
---------------------------------
  H      0.000000    0.000000    0.000000
  F      0.000000    0.000000    3.897059

----------------------------
CARTESIAN COORDINATES (A.U.)
----------------------------
  NO LB      ZA    FRAG     MASS         X           Y           Z
   0 H     1.0000    0     1.008    0.000000    0.000000    0.000000
   1 F     9.0000    0    18.998    0.000000    0.000000    7.364374

--------------------------------
INTERNAL COORDINATES (ANGSTROEM)
--------------------------------
 H      0   0   0     0.000000000000     0.00000000     0.00000000
 F      1   0   0     3.897058823529     0.00000000     0.00000000

---------------------------
INTERNAL COORDINATES (A.U.)
---------------------------
 H      0   0   0     0.000000000000     0.00000000     0.00000000
 F      1   0   0     7.364373904252     0.00000000     0.00000000

------------------------------------------------------------------------------
                   ___                                                        
                  /   \      - P O W E R E D   B Y -                         
                 /     \                                                     
                 |  |  |   _    _      __       _____    __    __             
                 |  |  |  | |  | |    /  \     |  _  \  |  |  /  |          
                  \  \/   | |  | |   /    \    | | | |  |  | /  /          
                 / \  \   | |__| |  /  /\  \   | |_| |  |  |/  /          
                |  |  |   |  __  | /  /__\  \  |    /   |      \           
                |  |  |   | |  | | |   __   |  |    \   |  |\   \          
                \     /   | |  | | |  |  |  |  | |\  \  |  | \   \       
                 \___/    |_|  |_| |__|  |__|  |_| \__\ |__|  \__/        
                                                                              
                      - O R C A' S   B I G   F R I E N D -                    
                                      &                                       
                       - I N T E G R A L  F E E D E R -                       
                                                                              
 v1 FN, 2020, v2 2021                                                         
------------------------------------------------------------------------------


Reading SHARK input file rhf.SHARKINP.tmp ... ok
----------------------
SHARK INTEGRAL PACKAGE
----------------------

Number of atoms                             ...      2
Number of basis functions                   ...     37
Number of shells                            ...     15
Maximum angular momentum                    ...      3
Integral batch strategy                     ... SHARK/LIBINT Hybrid
RI-J (if used) integral strategy            ... SPLIT-RIJ (Revised 2003 algorithm where possible)
Printlevel                                  ...      1
Contraction scheme used                     ... SEGMENTED contraction
Coulomb Range Separation                    ... NOT USED
Exchange Range Separation                   ... NOT USED
Finite Nucleus Model                        ... NOT USED
Auxiliary Coulomb fitting basis             ... NOT available
Auxiliary J/K fitting basis                 ... NOT available
Auxiliary Correlation fitting basis         ... NOT available
Auxiliary 'external' fitting basis          ... NOT available
Integral threshold                          ...     2.500000e-11
Primitive cut-off                           ...     2.500000e-12
Primitive pair pre-selection threshold      ...     2.500000e-12

Calculating pre-screening integrals         ... done (  0.0 sec) Dimension = 15
Organizing shell pair data                  ... done (  0.0 sec)
Shell pair information
Total number of shell pairs                 ...       120
Shell pairs after pre-screening             ...       110
Total number of primitive shell pairs       ...       376
Primitive shell pairs kept                  ...       312
          la=0 lb=0:     33 shell pairs
          la=1 lb=0:     29 shell pairs
          la=1 lb=1:      9 shell pairs
          la=2 lb=0:     15 shell pairs
          la=2 lb=1:      7 shell pairs
          la=2 lb=2:      3 shell pairs
          la=3 lb=0:      7 shell pairs
          la=3 lb=1:      4 shell pairs
          la=3 lb=2:      2 shell pairs
          la=3 lb=3:      1 shell pairs

Calculating one electron integrals          ... done (  0.0 sec)
Calculating Nuclear repulsion               ... done (  0.0 sec) ENN=      1.222099816904 Eh

SHARK setup successfully completed in   0.6 seconds

Maximum memory used throughout the entire GTOINT-calculation: 12.5 MB

Diagonalization of the overlap matrix:
Smallest eigenvalue                        ... 3.083e-02
Time for diagonalization                   ...    0.001 sec
Threshold for overlap eigenvalues          ... 1.000e-08
Number of eigenvalues below threshold      ... 0
Time for construction of square roots      ...    0.038 sec
Total time needed                          ...    0.040 sec

--------------
SCF ITERATIONS
--------------
ITER       Energy         Delta-E        Max-DP      RMS-DP      [F,P]     Damp
               ***  Starting incremental Fock matrix formation  ***
                      *** Initiating the SOSCF procedure ***
                      *** Re-Reading the Fockian *** 
                      *** Removing any level shift *** 
ITER      Energy       Delta-E        Grad      Rot      Max-DP    RMS-DP
  0    -99.64654390 -99.6465438970  0.000602  0.000602  0.000910  0.000063
               *** Restarting incremental Fock matrix formation ***
  1    -99.64654539  -0.0000014957  0.000489  0.002311  0.001387  0.000084
  2    -99.64654070   0.0000046914  0.001140  0.002043  0.000940  0.000064
  3    -99.64654650  -0.0000057961  0.000065  0.000030  0.000068  0.000005
  4    -99.64654651  -0.0000000113  0.000011  0.000015  0.000023  0.000002
  5    -99.64654651  -0.0000000011  0.000003  0.000004  0.000005  0.000000
                 **** Energy Check signals convergence ****
              ***Rediagonalizing the Fockian in SOSCF/NRSCF***

               *****************************************************
               *                     SUCCESS                       *
               *           SCF CONVERGED AFTER   6 CYCLES          *
               *****************************************************

Total Energy       :          -99.64654651 Eh           -2711.52038 eV
  Last Energy change         ...   -5.8009e-11  Tolerance :   1.0000e-08
  Last MAX-Density change    ...    1.5245e-06  Tolerance :   1.0000e-07
             **** THE GBW FILE WAS UPDATED (rhf.gbw) ****
             **** DENSITY rhf.scfp WAS UPDATED ****
             **** ENERGY FILE WAS UPDATED (rhf.en.tmp) ****
             **** THE GBW FILE WAS UPDATED (rhf.gbw) ****
             **** DENSITY rhf.scfp WAS UPDATED ****
Total SCF time: 0 days 0 hours 0 min 2 sec 

Maximum memory used throughout the entire SCF-calculation: 226.5 MB

-------------------------   --------------------
FINAL SINGLE POINT ENERGY       -99.646546509941
-------------------------   --------------------

Storing actual gbw-file in rhf.002.gbw ... done

                            ***************************************
                            *     ORCA property calculations      *
                            ***************************************

                                    ---------------------
                                    Active property flags
                                    ---------------------
   (+) Dipole Moment


------------------------------------------------------------------------------
                       ORCA ELECTRIC PROPERTIES CALCULATION
------------------------------------------------------------------------------

Dipole Moment Calculation                       ... on
Quadrupole Moment Calculation                   ... off
Polarizability Calculation                      ... off
GBWName                                         ... rhf.gbw
Electron density                                ... rhf.scfp
The origin for moment calculation is the CENTER OF MASS  = ( 0.000000,  0.000000  6.993321)

-------------
DIPOLE MOMENT
-------------
                                X             Y             Z
Electronic contribution:      0.00000       0.00000       0.65223
Nuclear contribution   :      0.00000       0.00000      -3.65384
                        -----------------------------------------
Total Dipole Moment    :      0.00000       0.00000      -3.00161
                        -----------------------------------------
Magnitude (a.u.)       :      3.00161
Magnitude (Debye)      :      7.62949



--------------------
Rotational spectrum 
--------------------
 
Rotational constants in cm-1:     0.000000     1.159618     1.159618 
Rotational constants in MHz :     0.000000 34764.463416 34764.463416 

 Dipole components along the rotational axes: 
x,y,z [a.u.] :    -3.001613     0.000000     0.000000 
x,y,z [Debye]:    -7.629494     0.000000     0.000000 

 

         *************************************************************
                                TRAJECTORY STEP   3
                  R  :   3.79411765
         *************************************************************
---------------------------------
CARTESIAN COORDINATES (ANGSTROEM)
---------------------------------
  H      0.000000    0.000000    0.000000
  F      0.000000    0.000000    3.794118

----------------------------
CARTESIAN COORDINATES (A.U.)
----------------------------
  NO LB      ZA    FRAG     MASS         X           Y           Z
   0 H     1.0000    0     1.008    0.000000    0.000000    0.000000
   1 F     9.0000    0    18.998    0.000000    0.000000    7.169843

--------------------------------
INTERNAL COORDINATES (ANGSTROEM)
--------------------------------
 H      0   0   0     0.000000000000     0.00000000     0.00000000
 F      1   0   0     3.794117647059     0.00000000     0.00000000

---------------------------
INTERNAL COORDINATES (A.U.)
---------------------------
 H      0   0   0     0.000000000000     0.00000000     0.00000000
 F      1   0   0     7.169843272819     0.00000000     0.00000000

------------------------------------------------------------------------------
                   ___                                                        
                  /   \      - P O W E R E D   B Y -                         
                 /     \                                                     
                 |  |  |   _    _      __       _____    __    __             
                 |  |  |  | |  | |    /  \     |  _  \  |  |  /  |          
                  \  \/   | |  | |   /    \    | | | |  |  | /  /          
                 / \  \   | |__| |  /  /\  \   | |_| |  |  |/  /          
                |  |  |   |  __  | /  /__\  \  |    /   |      \           
                |  |  |   | |  | | |   __   |  |    \   |  |\   \          
                \     /   | |  | | |  |  |  |  | |\  \  |  | \   \       
                 \___/    |_|  |_| |__|  |__|  |_| \__\ |__|  \__/        
                                                                              
                      - O R C A' S   B I G   F R I E N D -                    
                                      &                                       
                       - I N T E G R A L  F E E D E R -                       
                                                                              
 v1 FN, 2020, v2 2021                                                         
------------------------------------------------------------------------------


Reading SHARK input file rhf.SHARKINP.tmp ... ok
----------------------
SHARK INTEGRAL PACKAGE
----------------------

Number of atoms                             ...      2
Number of basis functions                   ...     37
Number of shells                            ...     15
Maximum angular momentum                    ...      3
Integral batch strategy                     ... SHARK/LIBINT Hybrid
RI-J (if used) integral strategy            ... SPLIT-RIJ (Revised 2003 algorithm where possible)
Printlevel                                  ...      1
Contraction scheme used                     ... SEGMENTED contraction
Coulomb Range Separation                    ... NOT USED
Exchange Range Separation                   ... NOT USED
Finite Nucleus Model                        ... NOT USED
Auxiliary Coulomb fitting basis             ... NOT available
Auxiliary J/K fitting basis                 ... NOT available
Auxiliary Correlation fitting basis         ... NOT available
Auxiliary 'external' fitting basis          ... NOT available
Integral threshold                          ...     2.500000e-11
Primitive cut-off                           ...     2.500000e-12
Primitive pair pre-selection threshold      ...     2.500000e-12

Calculating pre-screening integrals         ... done (  0.1 sec) Dimension = 15
Organizing shell pair data                  ... done (  0.1 sec)
Shell pair information
Total number of shell pairs                 ...       120
Shell pairs after pre-screening             ...       111
Total number of primitive shell pairs       ...       376
Primitive shell pairs kept                  ...       313
          la=0 lb=0:     33 shell pairs
          la=1 lb=0:     29 shell pairs
          la=1 lb=1:     10 shell pairs
          la=2 lb=0:     15 shell pairs
          la=2 lb=1:      7 shell pairs
          la=2 lb=2:      3 shell pairs
          la=3 lb=0:      7 shell pairs
          la=3 lb=1:      4 shell pairs
          la=3 lb=2:      2 shell pairs
          la=3 lb=3:      1 shell pairs

Calculating one electron integrals          ... done (  0.0 sec)
Calculating Nuclear repulsion               ... done (  0.0 sec) ENN=      1.255257563874 Eh

SHARK setup successfully completed in   0.6 seconds

Maximum memory used throughout the entire GTOINT-calculation: 12.5 MB

Diagonalization of the overlap matrix:
Smallest eigenvalue                        ... 3.080e-02
Time for diagonalization                   ...    0.001 sec
Threshold for overlap eigenvalues          ... 1.000e-08
Number of eigenvalues below threshold      ... 0
Time for construction of square roots      ...    0.034 sec
Total time needed                          ...    0.036 sec

--------------
SCF ITERATIONS
--------------
ITER       Energy         Delta-E        Max-DP      RMS-DP      [F,P]     Damp
               ***  Starting incremental Fock matrix formation  ***
                      *** Initiating the SOSCF procedure ***
                      *** Re-Reading the Fockian *** 
                      *** Removing any level shift *** 
ITER      Energy       Delta-E        Grad      Rot      Max-DP    RMS-DP
  0    -99.64986396 -99.6498639647  0.000640  0.000640  0.000850  0.000064
               *** Restarting incremental Fock matrix formation ***
  1    -99.64986551  -0.0000015443  0.000525  0.002413  0.001393  0.000088
  2    -99.64986045   0.0000050556  0.001184  0.002112  0.000980  0.000066
  3    -99.64986677  -0.0000063148  0.000066  0.000031  0.000071  0.000005
  4    -99.64986678  -0.0000000124  0.000011  0.000018  0.000025  0.000002
  5    -99.64986678  -0.0000000014  0.000003  0.000004  0.000005  0.000000
                 **** Energy Check signals convergence ****
              ***Rediagonalizing the Fockian in SOSCF/NRSCF***

               *****************************************************
               *                     SUCCESS                       *
               *           SCF CONVERGED AFTER   6 CYCLES          *
               *****************************************************

Total Energy       :          -99.64986678 Eh           -2711.61073 eV
  Last Energy change         ...   -4.1709e-11  Tolerance :   1.0000e-08
  Last MAX-Density change    ...    1.6711e-06  Tolerance :   1.0000e-07
             **** THE GBW FILE WAS UPDATED (rhf.gbw) ****
             **** DENSITY rhf.scfp WAS UPDATED ****
             **** ENERGY FILE WAS UPDATED (rhf.en.tmp) ****
             **** THE GBW FILE WAS UPDATED (rhf.gbw) ****
             **** DENSITY rhf.scfp WAS UPDATED ****
Total SCF time: 0 days 0 hours 0 min 2 sec 

Maximum memory used throughout the entire SCF-calculation: 226.5 MB

-------------------------   --------------------
FINAL SINGLE POINT ENERGY       -99.649866782133
-------------------------   --------------------

Storing actual gbw-file in rhf.003.gbw ... done

                            ***************************************
                            *     ORCA property calculations      *
                            ***************************************

                                    ---------------------
                                    Active property flags
                                    ---------------------
   (+) Dipole Moment


------------------------------------------------------------------------------
                       ORCA ELECTRIC PROPERTIES CALCULATION
------------------------------------------------------------------------------

Dipole Moment Calculation                       ... on
Quadrupole Moment Calculation                   ... off
Polarizability Calculation                      ... off
GBWName                                         ... rhf.gbw
Electron density                                ... rhf.scfp
The origin for moment calculation is the CENTER OF MASS  = ( 0.000000,  0.000000  6.808592)

-------------
DIPOLE MOMENT
-------------
                                X             Y             Z
Electronic contribution:      0.00000       0.00000       0.62169
Nuclear contribution   :      0.00000       0.00000      -3.55733
                        -----------------------------------------
Total Dipole Moment    :      0.00000       0.00000      -2.93563
                        -----------------------------------------
Magnitude (a.u.)       :      2.93563
Magnitude (Debye)      :      7.46178



--------------------
Rotational spectrum 
--------------------
 
Rotational constants in cm-1:     0.000000     1.223396     1.223396 
Rotational constants in MHz :     0.000000 36676.498459 36676.498459 

 Dipole components along the rotational axes: 
x,y,z [a.u.] :    -2.935631     0.000000     0.000000 
x,y,z [Debye]:    -7.461782     0.000000     0.000000 

 

         *************************************************************
                                TRAJECTORY STEP   4
                  R  :   3.69117647
         *************************************************************
---------------------------------
CARTESIAN COORDINATES (ANGSTROEM)
---------------------------------
  H      0.000000    0.000000    0.000000
  F      0.000000    0.000000    3.691176

----------------------------
CARTESIAN COORDINATES (A.U.)
----------------------------
  NO LB      ZA    FRAG     MASS         X           Y           Z
   0 H     1.0000    0     1.008    0.000000    0.000000    0.000000
   1 F     9.0000    0    18.998    0.000000    0.000000    6.975313

--------------------------------
INTERNAL COORDINATES (ANGSTROEM)
--------------------------------
 H      0   0   0     0.000000000000     0.00000000     0.00000000
 F      1   0   0     3.691176470588     0.00000000     0.00000000

---------------------------
INTERNAL COORDINATES (A.U.)
---------------------------
 H      0   0   0     0.000000000000     0.00000000     0.00000000
 F      1   0   0     6.975312641386     0.00000000     0.00000000

------------------------------------------------------------------------------
                   ___                                                        
                  /   \      - P O W E R E D   B Y -                         
                 /     \                                                     
                 |  |  |   _    _      __       _____    __    __             
                 |  |  |  | |  | |    /  \     |  _  \  |  |  /  |          
                  \  \/   | |  | |   /    \    | | | |  |  | /  /          
                 / \  \   | |__| |  /  /\  \   | |_| |  |  |/  /          
                |  |  |   |  __  | /  /__\  \  |    /   |      \           
                |  |  |   | |  | | |   __   |  |    \   |  |\   \          
                \     /   | |  | | |  |  |  |  | |\  \  |  | \   \       
                 \___/    |_|  |_| |__|  |__|  |_| \__\ |__|  \__/        
                                                                              
                      - O R C A' S   B I G   F R I E N D -                    
                                      &                                       
                       - I N T E G R A L  F E E D E R -                       
                                                                              
 v1 FN, 2020, v2 2021                                                         
------------------------------------------------------------------------------


Reading SHARK input file rhf.SHARKINP.tmp ... ok
----------------------
SHARK INTEGRAL PACKAGE
----------------------

Number of atoms                             ...      2
Number of basis functions                   ...     37
Number of shells                            ...     15
Maximum angular momentum                    ...      3
Integral batch strategy                     ... SHARK/LIBINT Hybrid
RI-J (if used) integral strategy            ... SPLIT-RIJ (Revised 2003 algorithm where possible)
Printlevel                                  ...      1
Contraction scheme used                     ... SEGMENTED contraction
Coulomb Range Separation                    ... NOT USED
Exchange Range Separation                   ... NOT USED
Finite Nucleus Model                        ... NOT USED
Auxiliary Coulomb fitting basis             ... NOT available
Auxiliary J/K fitting basis                 ... NOT available
Auxiliary Correlation fitting basis         ... NOT available
Auxiliary 'external' fitting basis          ... NOT available
Integral threshold                          ...     2.500000e-11
Primitive cut-off                           ...     2.500000e-12
Primitive pair pre-selection threshold      ...     2.500000e-12

Calculating pre-screening integrals         ... done (  0.1 sec) Dimension = 15
Organizing shell pair data                  ... done (  0.1 sec)
Shell pair information
Total number of shell pairs                 ...       120
Shell pairs after pre-screening             ...       112
Total number of primitive shell pairs       ...       376
Primitive shell pairs kept                  ...       315
          la=0 lb=0:     33 shell pairs
          la=1 lb=0:     29 shell pairs
          la=1 lb=1:     10 shell pairs
          la=2 lb=0:     15 shell pairs
          la=2 lb=1:      8 shell pairs
          la=2 lb=2:      3 shell pairs
          la=3 lb=0:      7 shell pairs
          la=3 lb=1:      4 shell pairs
          la=3 lb=2:      2 shell pairs
          la=3 lb=3:      1 shell pairs

Calculating one electron integrals          ... done (  0.0 sec)
Calculating Nuclear repulsion               ... done (  0.0 sec) ENN=      1.290264746931 Eh

SHARK setup successfully completed in   0.7 seconds

Maximum memory used throughout the entire GTOINT-calculation: 12.5 MB

Diagonalization of the overlap matrix:
Smallest eigenvalue                        ... 3.077e-02
Time for diagonalization                   ...    0.001 sec
Threshold for overlap eigenvalues          ... 1.000e-08
Number of eigenvalues below threshold      ... 0
Time for construction of square roots      ...    0.016 sec
Total time needed                          ...    0.019 sec

--------------
SCF ITERATIONS
--------------
ITER       Energy         Delta-E        Max-DP      RMS-DP      [F,P]     Damp
               ***  Starting incremental Fock matrix formation  ***
                      *** Initiating the SOSCF procedure ***
                      *** Re-Reading the Fockian *** 
                      *** Removing any level shift *** 
ITER      Energy       Delta-E        Grad      Rot      Max-DP    RMS-DP
  0    -99.65347848 -99.6534784828  0.000683  0.000683  0.000809  0.000065
               *** Restarting incremental Fock matrix formation ***
  1    -99.65348011  -0.0000016297  0.000547  0.002516  0.001379  0.000091
  2    -99.65347468   0.0000054343  0.001230  0.002182  0.001021  0.000069
  3    -99.65348156  -0.0000068789  0.000066  0.000032  0.000075  0.000005
  4    -99.65348157  -0.0000000141  0.000011  0.000023  0.000026  0.000002
  5    -99.65348157  -0.0000000019  0.000003  0.000004  0.000005  0.000000
                 **** Energy Check signals convergence ****
              ***Rediagonalizing the Fockian in SOSCF/NRSCF***

               *****************************************************
               *                     SUCCESS                       *
               *           SCF CONVERGED AFTER   6 CYCLES          *
               *****************************************************

Total Energy       :          -99.65348157 Eh           -2711.70909 eV
  Last Energy change         ...   -7.2646e-11  Tolerance :   1.0000e-08
  Last MAX-Density change    ...    1.6453e-06  Tolerance :   1.0000e-07
             **** THE GBW FILE WAS UPDATED (rhf.gbw) ****
             **** DENSITY rhf.scfp WAS UPDATED ****
             **** ENERGY FILE WAS UPDATED (rhf.en.tmp) ****
             **** THE GBW FILE WAS UPDATED (rhf.gbw) ****
             **** DENSITY rhf.scfp WAS UPDATED ****
Total SCF time: 0 days 0 hours 0 min 2 sec 

Maximum memory used throughout the entire SCF-calculation: 226.6 MB

-------------------------   --------------------
FINAL SINGLE POINT ENERGY       -99.653481573092
-------------------------   --------------------

Storing actual gbw-file in rhf.004.gbw ... done

                            ***************************************
                            *     ORCA property calculations      *
                            ***************************************

                                    ---------------------
                                    Active property flags
                                    ---------------------
   (+) Dipole Moment


------------------------------------------------------------------------------
                       ORCA ELECTRIC PROPERTIES CALCULATION
------------------------------------------------------------------------------

Dipole Moment Calculation                       ... on
Quadrupole Moment Calculation                   ... off
Polarizability Calculation                      ... off
GBWName                                         ... rhf.gbw
Electron density                                ... rhf.scfp
The origin for moment calculation is the CENTER OF MASS  = ( 0.000000,  0.000000  6.623862)

-------------
DIPOLE MOMENT
-------------
                                X             Y             Z
Electronic contribution:      0.00000       0.00000       0.59168
Nuclear contribution   :      0.00000       0.00000      -3.46081
                        -----------------------------------------
Total Dipole Moment    :      0.00000       0.00000      -2.86913
                        -----------------------------------------
Magnitude (a.u.)       :      2.86913
Magnitude (Debye)      :      7.29274



--------------------
Rotational spectrum 
--------------------
 
Rotational constants in cm-1:     0.000000     1.292585     1.292585 
Rotational constants in MHz :     0.000000 38750.725281 38750.725281 

 Dipole components along the rotational axes: 
x,y,z [a.u.] :    -2.869128     0.000000     0.000000 
x,y,z [Debye]:    -7.292743     0.000000     0.000000 

 

         *************************************************************
                                TRAJECTORY STEP   5
                  R  :   3.58823529
         *************************************************************
---------------------------------
CARTESIAN COORDINATES (ANGSTROEM)
---------------------------------
  H      0.000000    0.000000    0.000000
  F      0.000000    0.000000    3.588235

----------------------------
CARTESIAN COORDINATES (A.U.)
----------------------------
  NO LB      ZA    FRAG     MASS         X           Y           Z
   0 H     1.0000    0     1.008    0.000000    0.000000    0.000000
   1 F     9.0000    0    18.998    0.000000    0.000000    6.780782

--------------------------------
INTERNAL COORDINATES (ANGSTROEM)
--------------------------------
 H      0   0   0     0.000000000000     0.00000000     0.00000000
 F      1   0   0     3.588235294118     0.00000000     0.00000000

---------------------------
INTERNAL COORDINATES (A.U.)
---------------------------
 H      0   0   0     0.000000000000     0.00000000     0.00000000
 F      1   0   0     6.780782009953     0.00000000     0.00000000

------------------------------------------------------------------------------
                   ___                                                        
                  /   \      - P O W E R E D   B Y -                         
                 /     \                                                     
                 |  |  |   _    _      __       _____    __    __             
                 |  |  |  | |  | |    /  \     |  _  \  |  |  /  |          
                  \  \/   | |  | |   /    \    | | | |  |  | /  /          
                 / \  \   | |__| |  /  /\  \   | |_| |  |  |/  /          
                |  |  |   |  __  | /  /__\  \  |    /   |      \           
                |  |  |   | |  | | |   __   |  |    \   |  |\   \          
                \     /   | |  | | |  |  |  |  | |\  \  |  | \   \       
                 \___/    |_|  |_| |__|  |__|  |_| \__\ |__|  \__/        
                                                                              
                      - O R C A' S   B I G   F R I E N D -                    
                                      &                                       
                       - I N T E G R A L  F E E D E R -                       
                                                                              
 v1 FN, 2020, v2 2021                                                         
------------------------------------------------------------------------------


Reading SHARK input file rhf.SHARKINP.tmp ... ok
----------------------
SHARK INTEGRAL PACKAGE
----------------------

Number of atoms                             ...      2
Number of basis functions                   ...     37
Number of shells                            ...     15
Maximum angular momentum                    ...      3
Integral batch strategy                     ... SHARK/LIBINT Hybrid
RI-J (if used) integral strategy            ... SPLIT-RIJ (Revised 2003 algorithm where possible)
Printlevel                                  ...      1
Contraction scheme used                     ... SEGMENTED contraction
Coulomb Range Separation                    ... NOT USED
Exchange Range Separation                   ... NOT USED
Finite Nucleus Model                        ... NOT USED
Auxiliary Coulomb fitting basis             ... NOT available
Auxiliary J/K fitting basis                 ... NOT available
Auxiliary Correlation fitting basis         ... NOT available
Auxiliary 'external' fitting basis          ... NOT available
Integral threshold                          ...     2.500000e-11
Primitive cut-off                           ...     2.500000e-12
Primitive pair pre-selection threshold      ...     2.500000e-12

Calculating pre-screening integrals         ... done (  0.1 sec) Dimension = 15
Organizing shell pair data                  ... done (  0.2 sec)
Shell pair information
Total number of shell pairs                 ...       120
Shell pairs after pre-screening             ...       112
Total number of primitive shell pairs       ...       376
Primitive shell pairs kept                  ...       316
          la=0 lb=0:     33 shell pairs
          la=1 lb=0:     29 shell pairs
          la=1 lb=1:     10 shell pairs
          la=2 lb=0:     15 shell pairs
          la=2 lb=1:      8 shell pairs
          la=2 lb=2:      3 shell pairs
          la=3 lb=0:      7 shell pairs
          la=3 lb=1:      4 shell pairs
          la=3 lb=2:      2 shell pairs
          la=3 lb=3:      1 shell pairs

Calculating one electron integrals          ... done (  0.0 sec)
Calculating Nuclear repulsion               ... done (  0.0 sec) ENN=      1.327280538851 Eh

SHARK setup successfully completed in   0.7 seconds

Maximum memory used throughout the entire GTOINT-calculation: 12.5 MB

Diagonalization of the overlap matrix:
Smallest eigenvalue                        ... 3.074e-02
Time for diagonalization                   ...    0.001 sec
Threshold for overlap eigenvalues          ... 1.000e-08
Number of eigenvalues below threshold      ... 0
Time for construction of square roots      ...    0.044 sec
Total time needed                          ...    0.093 sec

--------------
SCF ITERATIONS
--------------
ITER       Energy         Delta-E        Max-DP      RMS-DP      [F,P]     Damp
               ***  Starting incremental Fock matrix formation  ***
                      *** Initiating the SOSCF procedure ***
                      *** Re-Reading the Fockian *** 
                      *** Removing any level shift *** 
ITER      Energy       Delta-E        Grad      Rot      Max-DP    RMS-DP
  0    -99.65742022 -99.6574202164  0.000731  0.000731  0.000887  0.000067
               *** Restarting incremental Fock matrix formation ***
  1    -99.65742201  -0.0000017941  0.000611  0.002617  0.001418  0.000094
  2    -99.65741620   0.0000058083  0.001276  0.002251  0.001063  0.000071
  3    -99.65742368  -0.0000074796  0.000068  0.000033  0.000079  0.000005
  4    -99.65742370  -0.0000000166  0.000015  0.000029  0.000032  0.000003
  5    -99.65742370  -0.0000000025  0.000003  0.000003  0.000004  0.000000
                 **** Energy Check signals convergence ****
              ***Rediagonalizing the Fockian in SOSCF/NRSCF***

               *****************************************************
               *                     SUCCESS                       *
               *           SCF CONVERGED AFTER   6 CYCLES          *
               *****************************************************

Total Energy       :          -99.65742370 Eh           -2711.81636 eV
  Last Energy change         ...   -8.2181e-11  Tolerance :   1.0000e-08
  Last MAX-Density change    ...    1.8135e-06  Tolerance :   1.0000e-07
             **** THE GBW FILE WAS UPDATED (rhf.gbw) ****
             **** DENSITY rhf.scfp WAS UPDATED ****
             **** ENERGY FILE WAS UPDATED (rhf.en.tmp) ****
             **** THE GBW FILE WAS UPDATED (rhf.gbw) ****
             **** DENSITY rhf.scfp WAS UPDATED ****
Total SCF time: 0 days 0 hours 0 min 2 sec 

Maximum memory used throughout the entire SCF-calculation: 226.6 MB

-------------------------   --------------------
FINAL SINGLE POINT ENERGY       -99.657423701120
-------------------------   --------------------

Storing actual gbw-file in rhf.005.gbw ... done

                            ***************************************
                            *     ORCA property calculations      *
                            ***************************************

                                    ---------------------
                                    Active property flags
                                    ---------------------
   (+) Dipole Moment


------------------------------------------------------------------------------
                       ORCA ELECTRIC PROPERTIES CALCULATION
------------------------------------------------------------------------------

Dipole Moment Calculation                       ... on
Quadrupole Moment Calculation                   ... off
Polarizability Calculation                      ... off
GBWName                                         ... rhf.gbw
Electron density                                ... rhf.scfp
The origin for moment calculation is the CENTER OF MASS  = ( 0.000000,  0.000000  6.439133)

-------------
DIPOLE MOMENT
-------------
                                X             Y             Z
Electronic contribution:      0.00000       0.00000       0.56216
Nuclear contribution   :      0.00000       0.00000      -3.36429
                        -----------------------------------------
Total Dipole Moment    :      0.00000       0.00000      -2.80213
                        -----------------------------------------
Magnitude (a.u.)       :      2.80213
Magnitude (Debye)      :      7.12245



--------------------
Rotational spectrum 
--------------------
 
Rotational constants in cm-1:     0.000000     1.367814     1.367814 
Rotational constants in MHz :     0.000000 41006.020616 41006.020616 

 Dipole components along the rotational axes: 
x,y,z [a.u.] :    -2.802129     0.000000     0.000000 
x,y,z [Debye]:    -7.122446     0.000000     0.000000 

 

         *************************************************************
                                TRAJECTORY STEP   6
                  R  :   3.48529412
         *************************************************************
---------------------------------
CARTESIAN COORDINATES (ANGSTROEM)
---------------------------------
  H      0.000000    0.000000    0.000000
  F      0.000000    0.000000    3.485294

----------------------------
CARTESIAN COORDINATES (A.U.)
----------------------------
  NO LB      ZA    FRAG     MASS         X           Y           Z
   0 H     1.0000    0     1.008    0.000000    0.000000    0.000000
   1 F     9.0000    0    18.998    0.000000    0.000000    6.586251

--------------------------------
INTERNAL COORDINATES (ANGSTROEM)
--------------------------------
 H      0   0   0     0.000000000000     0.00000000     0.00000000
 F      1   0   0     3.485294117647     0.00000000     0.00000000

---------------------------
INTERNAL COORDINATES (A.U.)
---------------------------
 H      0   0   0     0.000000000000     0.00000000     0.00000000
 F      1   0   0     6.586251378520     0.00000000     0.00000000

------------------------------------------------------------------------------
                   ___                                                        
                  /   \      - P O W E R E D   B Y -                         
                 /     \                                                     
                 |  |  |   _    _      __       _____    __    __             
                 |  |  |  | |  | |    /  \     |  _  \  |  |  /  |          
                  \  \/   | |  | |   /    \    | | | |  |  | /  /          
                 / \  \   | |__| |  /  /\  \   | |_| |  |  |/  /          
                |  |  |   |  __  | /  /__\  \  |    /   |      \           
                |  |  |   | |  | | |   __   |  |    \   |  |\   \          
                \     /   | |  | | |  |  |  |  | |\  \  |  | \   \       
                 \___/    |_|  |_| |__|  |__|  |_| \__\ |__|  \__/        
                                                                              
                      - O R C A' S   B I G   F R I E N D -                    
                                      &                                       
                       - I N T E G R A L  F E E D E R -                       
                                                                              
 v1 FN, 2020, v2 2021                                                         
------------------------------------------------------------------------------


Reading SHARK input file rhf.SHARKINP.tmp ... ok
----------------------
SHARK INTEGRAL PACKAGE
----------------------

Number of atoms                             ...      2
Number of basis functions                   ...     37
Number of shells                            ...     15
Maximum angular momentum                    ...      3
Integral batch strategy                     ... SHARK/LIBINT Hybrid
RI-J (if used) integral strategy            ... SPLIT-RIJ (Revised 2003 algorithm where possible)
Printlevel                                  ...      1
Contraction scheme used                     ... SEGMENTED contraction
Coulomb Range Separation                    ... NOT USED
Exchange Range Separation                   ... NOT USED
Finite Nucleus Model                        ... NOT USED
Auxiliary Coulomb fitting basis             ... NOT available
Auxiliary J/K fitting basis                 ... NOT available
Auxiliary Correlation fitting basis         ... NOT available
Auxiliary 'external' fitting basis          ... NOT available
Integral threshold                          ...     2.500000e-11
Primitive cut-off                           ...     2.500000e-12
Primitive pair pre-selection threshold      ...     2.500000e-12

Calculating pre-screening integrals         ... done (  0.1 sec) Dimension = 15
Organizing shell pair data                  ... done (  0.1 sec)
Shell pair information
Total number of shell pairs                 ...       120
Shell pairs after pre-screening             ...       112
Total number of primitive shell pairs       ...       376
Primitive shell pairs kept                  ...       318
          la=0 lb=0:     33 shell pairs
          la=1 lb=0:     29 shell pairs
          la=1 lb=1:     10 shell pairs
          la=2 lb=0:     15 shell pairs
          la=2 lb=1:      8 shell pairs
          la=2 lb=2:      3 shell pairs
          la=3 lb=0:      7 shell pairs
          la=3 lb=1:      4 shell pairs
          la=3 lb=2:      2 shell pairs
          la=3 lb=3:      1 shell pairs

Calculating one electron integrals          ... done (  0.0 sec)
Calculating Nuclear repulsion               ... done (  0.0 sec) ENN=      1.366482917635 Eh

SHARK setup successfully completed in   0.6 seconds

Maximum memory used throughout the entire GTOINT-calculation: 12.5 MB

Diagonalization of the overlap matrix:
Smallest eigenvalue                        ... 3.069e-02
Time for diagonalization                   ...    0.001 sec
Threshold for overlap eigenvalues          ... 1.000e-08
Number of eigenvalues below threshold      ... 0
Time for construction of square roots      ...    0.027 sec
Total time needed                          ...    0.058 sec

--------------
SCF ITERATIONS
--------------
ITER       Energy         Delta-E        Max-DP      RMS-DP      [F,P]     Damp
               ***  Starting incremental Fock matrix formation  ***
                      *** Initiating the SOSCF procedure ***
                      *** Re-Reading the Fockian *** 
                      *** Removing any level shift *** 
ITER      Energy       Delta-E        Grad      Rot      Max-DP    RMS-DP
  0    -99.66172584 -99.6617258395  0.000785  0.000785  0.000974  0.000072
               *** Restarting incremental Fock matrix formation ***
  1    -99.66172793  -0.0000020919  0.000675  0.002712  0.001484  0.000098
  2    -99.66172178   0.0000061518  0.001322  0.002316  0.001104  0.000074
  3    -99.66172988  -0.0000081051  0.000069  0.000033  0.000084  0.000006
  4    -99.66172991  -0.0000000205  0.000018  0.000038  0.000046  0.000003
                 **** Energy Check signals convergence ****
              ***Rediagonalizing the Fockian in SOSCF/NRSCF***

               *****************************************************
               *                     SUCCESS                       *
               *           SCF CONVERGED AFTER   5 CYCLES          *
               *****************************************************

Total Energy       :          -99.66172991 Eh           -2711.93354 eV
  Last Energy change         ...   -3.5374e-09  Tolerance :   1.0000e-08
  Last MAX-Density change    ...    3.5892e-06  Tolerance :   1.0000e-07
             **** THE GBW FILE WAS UPDATED (rhf.gbw) ****
             **** DENSITY rhf.scfp WAS UPDATED ****
             **** ENERGY FILE WAS UPDATED (rhf.en.tmp) ****
             **** THE GBW FILE WAS UPDATED (rhf.gbw) ****
             **** DENSITY rhf.scfp WAS UPDATED ****
Total SCF time: 0 days 0 hours 0 min 1 sec 

Maximum memory used throughout the entire SCF-calculation: 226.6 MB

-------------------------   --------------------
FINAL SINGLE POINT ENERGY       -99.661729908655
-------------------------   --------------------

Storing actual gbw-file in rhf.006.gbw ... done

                            ***************************************
                            *     ORCA property calculations      *
                            ***************************************

                                    ---------------------
                                    Active property flags
                                    ---------------------
   (+) Dipole Moment


------------------------------------------------------------------------------
                       ORCA ELECTRIC PROPERTIES CALCULATION
------------------------------------------------------------------------------

Dipole Moment Calculation                       ... on
Quadrupole Moment Calculation                   ... off
Polarizability Calculation                      ... off
GBWName                                         ... rhf.gbw
Electron density                                ... rhf.scfp
The origin for moment calculation is the CENTER OF MASS  = ( 0.000000,  0.000000  6.254404)

-------------
DIPOLE MOMENT
-------------
                                X             Y             Z
[...]

Diagonalization of the overlap matrix:
Smallest eigenvalue                        ... 5.065e-03
Time for diagonalization                   ...    0.001 sec
Threshold for overlap eigenvalues          ... 1.000e-08
Number of eigenvalues below threshold      ... 0
Time for construction of square roots      ...    0.021 sec
Total time needed                          ...    0.023 sec

--------------
SCF ITERATIONS
--------------
ITER       Energy         Delta-E        Max-DP      RMS-DP      [F,P]     Damp
               ***  Starting incremental Fock matrix formation  ***
  0    -99.7946855326   0.000000000000 0.01580835  0.00133014  0.1037384 0.7000
  1    -99.7974469076  -0.002761375063 0.01209272  0.00100771  0.0737367 0.7000
                               ***Turning on DIIS***
  2    -99.7993697339  -0.001922826296 0.02939273  0.00242942  0.0515947 0.0000
  3    -99.8031267347  -0.003757000737 0.00418967  0.00036317  0.0104965 0.0000
  4    -99.7989229987   0.004203735992 0.00178200  0.00010439  0.0059926 0.0000
                      *** Initiating the SOSCF procedure ***
                           *** Shutting down DIIS ***
                      *** Re-Reading the Fockian *** 
                      *** Removing any level shift *** 
ITER      Energy       Delta-E        Grad      Rot      Max-DP    RMS-DP
  5    -99.80459015  -0.0056671524  0.000792  0.000792  0.000603  0.000047
               *** Restarting incremental Fock matrix formation ***
  6    -99.80411816   0.0004719877  0.000249  0.000238  0.000237  0.000014
  7    -99.80411842  -0.0000002565  0.000075  0.000118  0.000114  0.000008
  8    -99.80411845  -0.0000000324  0.000023  0.000010  0.000014  0.000001
  9    -99.80411845  -0.0000000017  0.000004  0.000003  0.000003  0.000000
                 **** Energy Check signals convergence ****
              ***Rediagonalizing the Fockian in SOSCF/NRSCF***

               *****************************************************
               *                     SUCCESS                       *
               *           SCF CONVERGED AFTER  10 CYCLES          *
               *****************************************************

Total Energy       :          -99.80411845 Eh           -2715.80813 eV
  Last Energy change         ...   -6.1505e-11  Tolerance :   1.0000e-08
  Last MAX-Density change    ...    6.1343e-07  Tolerance :   1.0000e-07
             **** THE GBW FILE WAS UPDATED (rhf.gbw) ****
             **** DENSITY rhf.scfp WAS UPDATED ****
             **** ENERGY FILE WAS UPDATED (rhf.en.tmp) ****
             **** THE GBW FILE WAS UPDATED (rhf.gbw) ****
             **** DENSITY rhf.scfp WAS UPDATED ****
Total SCF time: 0 days 0 hours 0 min 3 sec 

Maximum memory used throughout the entire SCF-calculation: 226.6 MB

-------------------------   --------------------
FINAL SINGLE POINT ENERGY       -99.804118454078
-------------------------   --------------------

Storing actual gbw-file in rhf.034.gbw ... done

                            ***************************************
                            *     ORCA property calculations      *
                            ***************************************

                                    ---------------------
                                    Active property flags
                                    ---------------------
   (+) Dipole Moment


------------------------------------------------------------------------------
                       ORCA ELECTRIC PROPERTIES CALCULATION
------------------------------------------------------------------------------

Dipole Moment Calculation                       ... on
Quadrupole Moment Calculation                   ... off
Polarizability Calculation                      ... off
GBWName                                         ... rhf.gbw
Electron density                                ... rhf.scfp
The origin for moment calculation is the CENTER OF MASS  = ( 0.000000,  0.000000  1.081985)

-------------
DIPOLE MOMENT
-------------
                                X             Y             Z
Electronic contribution:      0.00000       0.00000      -0.00572
Nuclear contribution   :      0.00000       0.00000      -0.56531
                        -----------------------------------------
Total Dipole Moment    :      0.00000       0.00000      -0.57104
                        -----------------------------------------
Magnitude (a.u.)       :      0.57104
Magnitude (Debye)      :      1.45146



--------------------
Rotational spectrum 
--------------------
 
Rotational constants in cm-1:     0.000000    48.443874    48.443874 
Rotational constants in MHz :     0.000000 1452310.793222 1452310.793222 

 Dipole components along the rotational axes: 
x,y,z [a.u.] :    -0.571036     0.000000     0.000000 
x,y,z [Debye]:    -1.451459     0.000000     0.000000 

 

         *************************************************************
                                TRAJECTORY STEP  35
                  R  :   0.50000000
         *************************************************************
---------------------------------
CARTESIAN COORDINATES (ANGSTROEM)
---------------------------------
  H      0.000000    0.000000    0.000000
  F      0.000000    0.000000    0.500000

----------------------------
CARTESIAN COORDINATES (A.U.)
----------------------------
  NO LB      ZA    FRAG     MASS         X           Y           Z
   0 H     1.0000    0     1.008    0.000000    0.000000    0.000000
   1 F     9.0000    0    18.998    0.000000    0.000000    0.944863

--------------------------------
INTERNAL COORDINATES (ANGSTROEM)
--------------------------------
 H      0   0   0     0.000000000000     0.00000000     0.00000000
 F      1   0   0     0.500000000000     0.00000000     0.00000000

---------------------------
INTERNAL COORDINATES (A.U.)
---------------------------
 H      0   0   0     0.000000000000     0.00000000     0.00000000
 F      1   0   0     0.944863066961     0.00000000     0.00000000

------------------------------------------------------------------------------
                   ___                                                        
                  /   \      - P O W E R E D   B Y -                         
                 /     \                                                     
                 |  |  |   _    _      __       _____    __    __             
                 |  |  |  | |  | |    /  \     |  _  \  |  |  /  |          
                  \  \/   | |  | |   /    \    | | | |  |  | /  /          
                 / \  \   | |__| |  /  /\  \   | |_| |  |  |/  /          
                |  |  |   |  __  | /  /__\  \  |    /   |      \           
                |  |  |   | |  | | |   __   |  |    \   |  |\   \          
                \     /   | |  | | |  |  |  |  | |\  \  |  | \   \       
                 \___/    |_|  |_| |__|  |__|  |_| \__\ |__|  \__/        
                                                                              
                      - O R C A' S   B I G   F R I E N D -                    
                                      &                                       
                       - I N T E G R A L  F E E D E R -                       
                                                                              
 v1 FN, 2020, v2 2021                                                         
------------------------------------------------------------------------------


Reading SHARK input file rhf.SHARKINP.tmp ... ok
----------------------
SHARK INTEGRAL PACKAGE
----------------------

Number of atoms                             ...      2
Number of basis functions                   ...     37
Number of shells                            ...     15
Maximum angular momentum                    ...      3
Integral batch strategy                     ... SHARK/LIBINT Hybrid
RI-J (if used) integral strategy            ... SPLIT-RIJ (Revised 2003 algorithm where possible)
Printlevel                                  ...      1
Contraction scheme used                     ... SEGMENTED contraction
Coulomb Range Separation                    ... NOT USED
Exchange Range Separation                   ... NOT USED
Finite Nucleus Model                        ... NOT USED
Auxiliary Coulomb fitting basis             ... NOT available
Auxiliary J/K fitting basis                 ... NOT available
Auxiliary Correlation fitting basis         ... NOT available
Auxiliary 'external' fitting basis          ... NOT available
Integral threshold                          ...     2.500000e-11
Primitive cut-off                           ...     2.500000e-12
Primitive pair pre-selection threshold      ...     2.500000e-12

Calculating pre-screening integrals         ... done (  0.1 sec) Dimension = 15
Organizing shell pair data                  ... done (  0.1 sec)
Shell pair information
Total number of shell pairs                 ...       120
Shell pairs after pre-screening             ...       120
Total number of primitive shell pairs       ...       376
Primitive shell pairs kept                  ...       373
          la=0 lb=0:     36 shell pairs
          la=1 lb=0:     32 shell pairs
          la=1 lb=1:     10 shell pairs
          la=2 lb=0:     16 shell pairs
          la=2 lb=1:      8 shell pairs
          la=2 lb=2:      3 shell pairs
          la=3 lb=0:      8 shell pairs
          la=3 lb=1:      4 shell pairs
          la=3 lb=2:      2 shell pairs
          la=3 lb=3:      1 shell pairs

Calculating one electron integrals          ... done (  0.0 sec)
Calculating Nuclear repulsion               ... done (  0.0 sec) ENN=      9.525189749400 Eh

SHARK setup successfully completed in   0.6 seconds

Maximum memory used throughout the entire GTOINT-calculation: 12.5 MB

Diagonalization of the overlap matrix:
Smallest eigenvalue                        ... 3.764e-03
Time for diagonalization                   ...    0.001 sec
Threshold for overlap eigenvalues          ... 1.000e-08
Number of eigenvalues below threshold      ... 0
Time for construction of square roots      ...    0.078 sec
Total time needed                          ...    0.080 sec

--------------
SCF ITERATIONS
--------------
ITER       Energy         Delta-E        Max-DP      RMS-DP      [F,P]     Damp
               ***  Starting incremental Fock matrix formation  ***
  0    -99.3750499067   0.000000000000 0.02064487  0.00135768  0.1407787 0.7000
  1    -99.3784315744  -0.003381667714 0.01580861  0.00104178  0.1004098 0.7000
                               ***Turning on DIIS***
  2    -99.3807441830  -0.002312608561 0.03832655  0.00251992  0.0705861 0.0000
  3    -99.3863809183  -0.005636735312 0.00540814  0.00041280  0.0109529 0.0000
  4    -99.3813403541   0.005040564247 0.00168937  0.00011982  0.0055145 0.0000
                      *** Initiating the SOSCF procedure ***
                           *** Shutting down DIIS ***
                      *** Re-Reading the Fockian *** 
                      *** Removing any level shift *** 
ITER      Energy       Delta-E        Grad      Rot      Max-DP    RMS-DP
  5    -99.38713612  -0.0057957639  0.000588  0.000588  0.000993  0.000063
               *** Restarting incremental Fock matrix formation ***
  6    -99.38629535   0.0008407670  0.000111  0.000102  0.000106  0.000009
  7    -99.38629542  -0.0000000707  0.000035  0.000051  0.000067  0.000005
  8    -99.38629543  -0.0000000097  0.000006  0.000005  0.000009  0.000001
                 **** Energy Check signals convergence ****
              ***Rediagonalizing the Fockian in SOSCF/NRSCF***

               *****************************************************
               *                     SUCCESS                       *
               *           SCF CONVERGED AFTER   9 CYCLES          *
               *****************************************************

Total Energy       :          -99.38629543 Eh           -2704.43859 eV
  Last Energy change         ...   -1.8021e-10  Tolerance :   1.0000e-08
  Last MAX-Density change    ...    1.5704e-06  Tolerance :   1.0000e-07
             **** THE GBW FILE WAS UPDATED (rhf.gbw) ****
             **** DENSITY rhf.scfp WAS UPDATED ****
             **** ENERGY FILE WAS UPDATED (rhf.en.tmp) ****
             **** THE GBW FILE WAS UPDATED (rhf.gbw) ****
             **** DENSITY rhf.scfp WAS UPDATED ****
Total SCF time: 0 days 0 hours 0 min 3 sec 

Maximum memory used throughout the entire SCF-calculation: 226.6 MB

-------------------------   --------------------
FINAL SINGLE POINT ENERGY       -99.386295431522
-------------------------   --------------------

Storing actual gbw-file in rhf.035.gbw ... done

                            ***************************************
                            *     ORCA property calculations      *
                            ***************************************

                                    ---------------------
                                    Active property flags
                                    ---------------------
   (+) Dipole Moment


------------------------------------------------------------------------------
                       ORCA ELECTRIC PROPERTIES CALCULATION
------------------------------------------------------------------------------

Dipole Moment Calculation                       ... on
Quadrupole Moment Calculation                   ... off
Polarizability Calculation                      ... off
GBWName                                         ... rhf.gbw
Electron density                                ... rhf.scfp
The origin for moment calculation is the CENTER OF MASS  = ( 0.000000,  0.000000  0.897256)

-------------
DIPOLE MOMENT
-------------
                                X             Y             Z
Electronic contribution:      0.00000      -0.00000      -0.04153
Nuclear contribution   :      0.00000       0.00000      -0.46879
                        -----------------------------------------
Total Dipole Moment    :      0.00000      -0.00000      -0.51033
                        -----------------------------------------
Magnitude (a.u.)       :      0.51033
Magnitude (Debye)      :      1.29715



--------------------
Rotational spectrum 
--------------------
 
Rotational constants in cm-1:     0.000000    70.444768    70.444768 
Rotational constants in MHz :     0.000000 2111881.006407 2111881.006407 

 Dipole components along the rotational axes: 
x,y,z [a.u.] :    -0.510328    -0.000000     0.000000 
x,y,z [Debye]:    -1.297150    -0.000000     0.000000 

 
                              **** TRAJECTORY DONE ***

                         SUMMARY OF THE CALCULATED SURFACE

------------------
TRAJECTORY RESULTS
------------------

Column   1: R

The Calculated Surface using the 'Actual Energy'
   4.00000000 -99.64349138
   3.89705882 -99.64654651
   3.79411765 -99.64986678
   3.69117647 -99.65348157
   3.58823529 -99.65742370
   3.48529412 -99.66172991
   3.38235294 -99.66644138
   3.27941176 -99.67160428
   3.17647059 -99.67727021
   3.07352941 -99.68349662
   2.97058824 -99.69034713
   2.86764706 -99.69789185
   2.76470588 -99.70620776
   2.66176471 -99.71537941
   2.55882353 -99.72549979
   2.45588235 -99.73667164
   2.35294118 -99.74900863
   2.25000000 -99.76263632
   2.14705882 -99.77769227
   2.04411765 -99.79432468
   1.94117647 -99.81268863
   1.83823529 -99.83293842
   1.73529412 -99.85521345
   1.63235294 -99.87961408
   1.52941176 -99.90616227
   1.42647059 -99.93473445
   1.32352941 -99.96493570
   1.22058824 -99.99585912
   1.11764706 -100.02563715
   1.01470588 -100.05058767
   0.91176471 -100.06350113
   0.80882353 -100.05020209
   0.70588235 -99.98285483
   0.60294118 -99.80411845
   0.50000000 -99.38629543

                        *******************************
                        *   FIT OF THE ACT-ENERGY PES *
                        *******************************
-------------------------------
POTENTIAL ENERGY SURFACE =   0
-------------------------------

Minimum found after 13 iterations
Equilibrium distance and its energy from the interpolated PES:
  Re      =   0.89602 Angstroem  (  1.69324 Bohr)
  E(Re)   =  -100.063799 Eh 
  dE/dR   = 5.679e-09 (-4.797e-02 CHEB)
  d2E/dR2 =    0.723519 (   0.811628 CHEB) (   1.044450 NUM)
  d3E/dR3 =   -5.060072 (  43.938529 CHEB)

Spectroscopic constants:
  we =    4486.1 cm**-1 (based on SPLINE)
  we =    4751.4 cm**-1 (based on CHEB)
  we =    5390.0 cm**-1 (based on NUM)

Performing Morse fit ...
Morse-Fit Results:
 Te(adiabatic)   =   -3423.1 cm**-1         = -0.424 eV
 d2E/dR**2 (Morse)=      0.748413529 
 d3E/dR**3 (Morse)=     -2.134074910 
 d4E/dR**4 (Morse)=      4.732964216 
 E0               =   -100.079396003 Eh  RMS=2.13e-05
 Re               =   0.95367 Angstroem      =  1.80218 Bohr RMS=4.49e-05)
 De(Morse)        =  11.27116 eV             =  90908.1 cm**-1 RMS=2.39e-05
 D0(Morse)        =  10.98832 eV
 beta             =   0.95049 au          RMS=6.24e-05
 we               =   4562.6 cm**-1
 wexe             =     57.2 cm**-1
 Displacement   =    0.0576 Angstroem      =  0.10894 Bohr

The Calculated Surface using the SCF energy
   4.00000000 -99.64349138
   3.89705882 -99.64654651
   3.79411765 -99.64986678
   3.69117647 -99.65348157
   3.58823529 -99.65742370
   3.48529412 -99.66172991
   3.38235294 -99.66644138
   3.27941176 -99.67160428
   3.17647059 -99.67727021
   3.07352941 -99.68349662
   2.97058824 -99.69034713
   2.86764706 -99.69789185
   2.76470588 -99.70620776
   2.66176471 -99.71537941
   2.55882353 -99.72549979
   2.45588235 -99.73667164
   2.35294118 -99.74900863
   2.25000000 -99.76263632
   2.14705882 -99.77769227
   2.04411765 -99.79432468
   1.94117647 -99.81268863
   1.83823529 -99.83293842
   1.73529412 -99.85521345
   1.63235294 -99.87961408
   1.52941176 -99.90616227
   1.42647059 -99.93473445
   1.32352941 -99.96493570
   1.22058824 -99.99585912
   1.11764706 -100.02563715
   1.01470588 -100.05058767
   0.91176471 -100.06350113
   0.80882353 -100.05020209
   0.70588235 -99.98285483
   0.60294118 -99.80411845
   0.50000000 -99.38629543

                        *******************************
                        *       FIT OF THE SCF PES    *
                        *******************************
-------------------------------
POTENTIAL ENERGY SURFACE =   0
-------------------------------

Minimum found after 13 iterations
Equilibrium distance and its energy from the interpolated PES:
  Re      =   0.89602 Angstroem  (  1.69324 Bohr)
  E(Re)   =  -100.063799 Eh 
  dE/dR   = 5.679e-09 (-4.797e-02 CHEB)
  d2E/dR2 =    0.723519 (   0.811628 CHEB) (   1.044450 NUM)
  d3E/dR3 =   -5.060072 (  43.938529 CHEB)

Spectroscopic constants:
  we =    4486.1 cm**-1 (based on SPLINE)
  we =    4751.4 cm**-1 (based on CHEB)
  we =    5390.0 cm**-1 (based on NUM)

Performing Morse fit ...
Morse-Fit Results:
 Te(adiabatic)   =   -3423.1 cm**-1         = -0.424 eV
 d2E/dR**2 (Morse)=      0.748413529 
 d3E/dR**3 (Morse)=     -2.134074910 
 d4E/dR**4 (Morse)=      4.732964216 
 E0               =   -100.079396003 Eh  RMS=2.13e-05
 Re               =   0.95367 Angstroem      =  1.80218 Bohr RMS=4.49e-05)
 De(Morse)        =  11.27116 eV             =  90908.1 cm**-1 RMS=2.39e-05
 D0(Morse)        =  10.98832 eV
 beta             =   0.95049 au          RMS=6.24e-05
 we               =   4562.6 cm**-1
 wexe             =     57.2 cm**-1
 Displacement   =    0.0576 Angstroem      =  0.10894 Bohr


Timings for individual modules:

Sum of individual times         ...      130.767 sec (=   2.179 min)
GTO integral calculation        ...       28.085 sec (=   0.468 min)  21.5 %
SCF iterations                  ...      102.682 sec (=   1.711 min)  78.5 %
                             ****ORCA TERMINATED NORMALLY****
TOTAL RUN TIME: 0 days 0 hours 2 minutes 42 seconds 524 msec
