
                                 *****************
                                 * O   R   C   A *
                                 *****************

                                            #,                                       
                                            ###                                      
                                            ####                                     
                                            #####                                    
                                            ######                                   
                                           ########,                                 
                                     ,,################,,,,,                         
                               ,,#################################,,                 
                          ,,##########################################,,             
                       ,#########################################, ''#####,          
                    ,#############################################,,   '####,        
                  ,##################################################,,,,####,       
                ,###########''''           ''''###############################       
              ,#####''   ,,,,##########,,,,          '''####'''          '####       
            ,##' ,,,,###########################,,,                        '##       
           ' ,,###''''                  '''############,,,                           
         ,,##''                                '''############,,,,        ,,,,,,###''
      ,#''                                            '''#######################'''  
     '                                                          ''''####''''         
             ,#######,   #######,   ,#######,      ##                                
            ,#'     '#,  ##    ##  ,#'     '#,    #''#        ######   ,####,        
            ##       ##  ##   ,#'  ##            #'  '#       #        #'  '#        
            ##       ##  #######   ##           ,######,      #####,   #    #        
            '#,     ,#'  ##    ##  '#,     ,#' ,#      #,         ##   #,  ,#        
             '#######'   ##     ##  '#######'  #'      '#     #####' # '####'        



                  #######################################################
                  #                        -***-                        #
                  #          Department of theory and spectroscopy      #
                  #    Directorship and core code : Frank Neese         #
                  #        Max Planck Institute fuer Kohlenforschung    #
                  #                Kaiser Wilhelm Platz 1               #
                  #                 D-45470 Muelheim/Ruhr               #
                  #                      Germany                        #
                  #                                                     #
                  #                  All rights reserved                #
                  #                        -***-                        #
                  #######################################################


                         Program Version 5.0.2 -  RELEASE  -


 With contributions from (in alphabetic order):
   Daniel Aravena         : Magnetic Suceptibility
   Michael Atanasov       : Ab Initio Ligand Field Theory (pilot matlab implementation)
   Alexander A. Auer      : GIAO ZORA, VPT2 properties, NMR spectrum
   Ute Becker             : Parallelization
   Giovanni Bistoni       : ED, misc. LED, open-shell LED, HFLD
   Martin Brehm           : Molecular dynamics
   Dmytro Bykov           : SCF Hessian
   Vijay G. Chilkuri      : MRCI spin determinant printing, contributions to CSF-ICE
   Dipayan Datta          : RHF DLPNO-CCSD density
   Achintya Kumar Dutta   : EOM-CC, STEOM-CC
   Dmitry Ganyushin       : Spin-Orbit,Spin-Spin,Magnetic field MRCI
   Miquel Garcia          : C-PCM and meta-GGA Hessian, CC/C-PCM, Gaussian charge scheme
   Yang Guo               : DLPNO-NEVPT2, F12-NEVPT2, CIM, IAO-localization
   Andreas Hansen         : Spin unrestricted coupled pair/coupled cluster methods
   Benjamin Helmich-Paris : MC-RPA, TRAH-SCF, COSX integrals
   Lee Huntington         : MR-EOM, pCC
   Robert Izsak           : Overlap fitted RIJCOSX, COSX-SCS-MP3, EOM
   Marcus Kettner         : VPT2
   Christian Kollmar      : KDIIS, OOCD, Brueckner-CCSD(T), CCSD density, CASPT2, CASPT2-K
   Simone Kossmann        : Meta GGA functionals, TD-DFT gradient, OOMP2, MP2 Hessian
   Martin Krupicka        : Initial AUTO-CI
   Lucas Lang             : DCDCAS
   Marvin Lechner         : AUTO-CI (C++ implementation), FIC-MRCC
   Dagmar Lenk            : GEPOL surface, SMD
   Dimitrios Liakos       : Extrapolation schemes; Compound Job, initial MDCI parallelization
   Dimitrios Manganas     : Further ROCIS development; embedding schemes
   Dimitrios Pantazis     : SARC Basis sets
   Anastasios Papadopoulos: AUTO-CI, single reference methods and gradients
   Taras Petrenko         : DFT Hessian,TD-DFT gradient, ASA, ECA, R-Raman, ABS, FL, XAS/XES, NRVS
   Peter Pinski           : DLPNO-MP2, DLPNO-MP2 Gradient
   Christoph Reimann      : Effective Core Potentials
   Marius Retegan         : Local ZFS, SOC
   Christoph Riplinger    : Optimizer, TS searches, QM/MM, DLPNO-CCSD(T), (RO)-DLPNO pert. Triples
   Tobias Risthaus        : Range-separated hybrids, TD-DFT gradient, RPA, STAB
   Michael Roemelt        : Original ROCIS implementation
   Masaaki Saitow         : Open-shell DLPNO-CCSD energy and density
   Barbara Sandhoefer     : DKH picture change effects
   Avijit Sen             : IP-ROCIS
   Kantharuban Sivalingam : CASSCF convergence, NEVPT2, FIC-MRCI
   Bernardo de Souza      : ESD, SOC TD-DFT
   Georgi Stoychev        : AutoAux, RI-MP2 NMR, DLPNO-MP2 response
   Willem Van den Heuvel  : Paramagnetic NMR
   Boris Wezisla          : Elementary symmetry handling
   Frank Wennmohs         : Technical directorship


 We gratefully acknowledge several colleagues who have allowed us to
 interface, adapt or use parts of their codes:
   Stefan Grimme, W. Hujo, H. Kruse, P. Pracht,  : VdW corrections, initial TS optimization,
                  C. Bannwarth, S. Ehlert          DFT functionals, gCP, sTDA/sTD-DF
   Ed Valeev, F. Pavosevic, A. Kumar             : LibInt (2-el integral package), F12 methods
   Garnet Chan, S. Sharma, J. Yang, R. Olivares  : DMRG
   Ulf Ekstrom                                   : XCFun DFT Library
   Mihaly Kallay                                 : mrcc  (arbitrary order and MRCC methods)
   Jiri Pittner, Ondrej Demel                    : Mk-CCSD
   Frank Weinhold                                : gennbo (NPA and NBO analysis)
   Christopher J. Cramer and Donald G. Truhlar   : smd solvation model
   Lars Goerigk                                  : TD-DFT with DH, B97 family of functionals
   V. Asgeirsson, H. Jonsson                     : NEB implementation
   FAccTs GmbH                                   : IRC, NEB, NEB-TS, DLPNO-Multilevel, CI-OPT
                                                   MM, QMMM, 2- and 3-layer-ONIOM, Crystal-QMMM,
                                                   LR-CPCM, SF, NACMEs, symmetry and pop. for TD-DFT,
                                                   nearIR, NL-DFT gradient (VV10), updates on ESD,
                                                   ML-optimized integration grids
   S Lehtola, MJT Oliveira, MAL Marques          : LibXC Library
   Liviu Ungur et al                             : ANISO software


 Your calculation uses the libint2 library for the computation of 2-el integrals
 For citations please refer to: http://libint.valeyev.net

 Your ORCA version has been built with support for libXC version: 5.1.0
 For citations please refer to: https://tddft.org/programs/libxc/

 This ORCA versions uses:
   CBLAS   interface :  Fast vector & matrix operations
   LAPACKE interface :  Fast linear algebra routines
   SCALAPACK package :  Parallel linear algebra routines
   Shared memory     :  Shared parallel matrices
   BLAS/LAPACK       :  OpenBLAS 0.3.15  USE64BITINT DYNAMIC_ARCH NO_AFFINITY Haswell SINGLE_THREADED
        Core in use  :  Haswell
   Copyright (c) 2011-2014, The OpenBLAS Project




***************************************
The coordinates will be read from file: G.xyz
***************************************


Your calculation utilizes the geometrical counterpoise correction gCP
Please cite in your paper:
H.Kruse, S. Grimme J.Chem.Phys., 136, (2012), 154101 
   

Your calculation utilizes the atom-pairwise dispersion correction
with the Becke-Johnson damping scheme (D3BJ)
Cite in your paper:
S.Grimme, S.Ehrlich, L.Goerigk, J Comput Chem, (2011), 32, 1456–1465 
S.Grimme, J.Antony, S.Ehrlich and H.Krieg, J.Chem.Phys., 132, (2010), 154104 
   

Your calculation employs the composite approach PBEh-3c.
Please cite in your paper:
S. Grimme, J. G. Brandenburg, C. Bannwarth, A. Hansen J.Chem.Phys., 143, (2015), 054107 
   

================================================================================

----- Orbital basis set information -----
Your calculation utilizes the basis: def2-mSVP

----- AuxJ basis set information -----
Your calculation utilizes the auxiliary basis: def2/J
   F. Weigend, Phys. Chem. Chem. Phys. 8, 1057 (2006).

================================================================================
                                        WARNINGS
                       Please study these warnings very carefully!
================================================================================


WARNING: Geometry Optimization
  ===> : Switching off AutoStart
         For restart on a previous wavefunction, please use MOREAD

INFO   : the flag for use of the SHARK integral package has been found!

================================================================================
                                       INPUT FILE
================================================================================
NAME = OPT_G.inp
|  1> ! PBEh-3c Opt
|  2> 
|  3> *xyzfile 0 1 G.xyz
|  4> 
|  5>                          ****END OF INPUT****
================================================================================

                       *****************************
                       * Geometry Optimization Run *
                       *****************************

Geometry optimization settings:
Update method            Update   .... BFGS
Choice of coordinates    CoordSys .... Z-matrix Internals
Initial Hessian          InHess   .... Almoef's Model

Convergence Tolerances:
Energy Change            TolE     ....  5.0000e-06 Eh
Max. Gradient            TolMAXG  ....  3.0000e-04 Eh/bohr
RMS Gradient             TolRMSG  ....  1.0000e-04 Eh/bohr
Max. Displacement        TolMAXD  ....  4.0000e-03 bohr
RMS Displacement         TolRMSD  ....  2.0000e-03 bohr
Strict Convergence                ....  False
------------------------------------------------------------------------------
                        ORCA OPTIMIZATION COORDINATE SETUP
------------------------------------------------------------------------------

The optimization will be done in new redundant internal coordinates
Making redundant internal coordinates   ...  (new redundants) done
Evaluating the initial hessian          ...  (Almloef) done
Evaluating the coordinates              ...  done
Calculating the B-matrix                .... done
Calculating the G-matrix                .... done
Diagonalizing the G-matrix              .... done
The first mode is                       ....   34
The number of degrees of freedom        ....   36

    -----------------------------------------------------------------
                    Redundant Internal Coordinates


    -----------------------------------------------------------------
         Definition                    Initial Value    Approx d2E/dq
    -----------------------------------------------------------------
      1. B(C   1,C   0)                  1.5363         0.365025   
      2. B(O   2,C   0)                  1.4149         0.510620   
      3. B(O   3,C   1)                  1.4149         0.510594   
      4. B(C   4,O   3)                  1.4149         0.510613   
      5. B(C   5,C   4)                  1.5363         0.364967   
      6. B(C   5,O   2)                  1.4149         0.510610   
      7. B(H   6,C   0)                  1.1103         0.334265   
      8. B(H   7,C   0)                  1.1138         0.329905   
      9. B(H   8,C   1)                  1.1103         0.334277   
     10. B(H   9,C   1)                  1.1138         0.329896   
     11. B(H  10,C   4)                  1.1103         0.334268   
     12. B(H  11,C   4)                  1.1138         0.329905   
     13. B(H  12,C   5)                  1.1138         0.329910   
     14. B(H  13,C   5)                  1.1103         0.334278   
     15. A(C   1,C   0,H   7)          110.8640         0.318495   
     16. A(O   2,C   0,H   7)          110.4435         0.334572   
     17. A(H   6,C   0,H   7)          107.3738         0.283572   
     18. A(O   2,C   0,H   6)          108.9002         0.335303   
     19. A(C   1,C   0,O   2)          110.2755         0.379510   
     20. A(C   1,C   0,H   6)          108.9044         0.319178   
     21. A(C   0,C   1,H   9)          110.8638         0.318493   
     22. A(C   0,C   1,O   3)          110.2745         0.379507   
     23. A(O   3,C   1,H   9)          110.4431         0.334567   
     24. A(O   3,C   1,H   8)          108.9006         0.335302   
     25. A(H   8,C   1,H   9)          107.3746         0.283572   
     26. A(C   0,C   1,H   8)          108.9048         0.319179   
     27. A(C   0,O   2,C   5)          109.0451         0.399861   
     28. A(C   1,O   3,C   4)          109.0447         0.399857   
     29. A(O   3,C   4,C   5)          110.2815         0.379499   
     30. A(H  10,C   4,H  11)          107.3743         0.283572   
     31. A(C   5,C   4,H  11)          110.8663         0.318486   
     32. A(O   3,C   4,H  11)          110.4388         0.334571   
     33. A(C   5,C   4,H  10)          108.9004         0.319170   
     34. A(O   3,C   4,H  10)          108.8997         0.335302   
     35. A(H  12,C   5,H  13)          107.3741         0.283574   
     36. A(C   4,C   5,H  13)          108.9004         0.319171   
     37. A(O   2,C   5,H  13)          108.9005         0.335304   
     38. A(O   2,C   5,C   4)          110.2810         0.379499   
     39. A(C   4,C   5,H  12)          110.8665         0.318487   
     40. A(O   2,C   5,H  12)          110.4387         0.334571   
     41. D(H   8,C   1,C   0,H   7)    -56.3311         0.010670   
     42. D(H   9,C   1,C   0,H   6)    -56.3323         0.010670   
     43. D(O   3,C   1,C   0,H   6)   -178.9662         0.010670   
     44. D(H   9,C   1,C   0,O   2)     63.1082         0.010670   
     45. D(O   3,C   1,C   0,O   2)    -59.5257         0.010670   
     46. D(O   3,C   1,C   0,H   7)     63.1096         0.010670   
     47. D(H   8,C   1,C   0,O   2)   -178.9664         0.010670   
     48. D(H   9,C   1,C   0,H   7)   -174.2565         0.010670   
     49. D(H   8,C   1,C   0,H   6)     61.5931         0.010670   
     50. D(C   5,O   2,C   0,H   6)    178.2238         0.020642   
     51. D(C   5,O   2,C   0,H   7)    -64.1008         0.020642   
     52. D(C   5,O   2,C   0,C   1)     58.7808         0.020642   
     53. D(C   4,O   3,C   1,H   9)    -64.0997         0.020640   
     54. D(C   4,O   3,C   1,H   8)    178.2239         0.020640   
     55. D(C   4,O   3,C   1,C   0)     58.7808         0.020640   
     56. D(H  11,C   4,O   3,C   1)     64.1181         0.020642   
     57. D(H  10,C   4,O   3,C   1)   -178.2088         0.020642   
     58. D(C   5,C   4,O   3,C   1)    -58.7673         0.020642   
     59. D(H  13,C   5,C   4,H  11)     56.3037         0.010667   
     60. D(H  13,C   5,C   4,H  10)    -61.6202         0.010667   
     61. D(H  13,C   5,C   4,O   3)    178.9387         0.010667   
     62. D(H  12,C   5,C   4,H  10)     56.3035         0.010667   
     63. D(H  12,C   5,C   4,O   3)    -63.1376         0.010667   
     64. D(O   2,C   5,C   4,H  11)    -63.1380         0.010667   
     65. D(O   2,C   5,C   4,H  10)    178.9381         0.010667   
     66. D(H  12,C   5,C   4,H  11)    174.2274         0.010667   
     67. D(O   2,C   5,C   4,O   3)     59.4970         0.010667   
     68. D(H  13,C   5,O   2,C   0)   -178.2082         0.020642   
     69. D(H  12,C   5,O   2,C   0)     64.1187         0.020642   
     70. D(C   4,C   5,O   2,C   0)    -58.7665         0.020642   
    -----------------------------------------------------------------

Number of atoms                         .... 14
Number of degrees of freedom            .... 70

         *************************************************************
         *                GEOMETRY OPTIMIZATION CYCLE   1            *
         *************************************************************
---------------------------------
CARTESIAN COORDINATES (ANGSTROEM)
---------------------------------
  C     -7.356610    1.347850   -7.006070
  C     -7.417540   -0.065240   -6.406330
  O     -6.924430    2.276560   -6.029980
  O     -6.141400   -0.452720   -5.933680
  C     -5.709010    0.475940   -4.957630
  C     -5.648340    1.889190   -5.557130
  H     -8.371520    1.635850   -7.352050
  H     -6.683120    1.373730   -7.892850
  H     -7.740390   -0.777060   -7.194840
  H     -8.168350   -0.115610   -5.585110
  H     -4.693960    0.188010   -4.612010
  H     -6.382240    0.449800   -4.070660
  H     -4.897410    1.939950   -6.378200
  H     -5.325790    2.600890   -4.768390

----------------------------
CARTESIAN COORDINATES (A.U.)
----------------------------
  NO LB      ZA    FRAG     MASS         X           Y           Z
   0 C     6.0000    0    12.011  -13.901978    2.547067  -13.239554
   1 C     6.0000    0    12.011  -14.017119   -0.123286  -12.106209
   2 O     8.0000    0    15.999  -13.085276    4.302075  -11.395011
   3 O     8.0000    0    15.999  -11.605564   -0.855517  -11.213030
   4 C     6.0000    0    12.011  -10.788465    0.899396   -9.368563
   5 C     6.0000    0    12.011  -10.673816    3.570052  -10.501454
   6 H     1.0000    0     1.008  -15.819880    3.091308  -13.893361
   7 H     1.0000    0     1.008  -12.629267    2.595973  -14.915325
   8 H     1.0000    0     1.008  -14.627217   -1.468431  -13.596277
   9 H     1.0000    0     1.008  -15.435944   -0.218471  -10.554328
  10 H     1.0000    0     1.008   -8.870299    0.355287   -8.715436
  11 H     1.0000    0     1.008  -12.060686    0.849999   -7.692433
  12 H     1.0000    0     1.008   -9.254764    3.665974  -12.053051
  13 H     1.0000    0     1.008  -10.064285    4.914970   -9.010951

--------------------------------
INTERNAL COORDINATES (ANGSTROEM)
--------------------------------
 C      0   0   0     0.000000000000     0.00000000     0.00000000
 C      1   0   0     1.536302014774     0.00000000     0.00000000
 O      1   2   0     1.414932332163   110.27547626     0.00000000
 O      2   1   3     1.414945960982   110.27450499   300.47430885
 C      4   2   1     1.414936079899   109.04470112    58.78075836
 C      3   1   2     1.414937570178   109.04509211    58.78082551
 H      1   2   3     1.110265044257   108.90435912   240.55951641
 H      1   2   3     1.113839002235   110.86403229   122.63524603
 H      2   1   3     1.110255761075   108.90475355   181.03362590
 H      2   1   3     1.113846973960   110.86383039    63.10821890
 H      5   4   2     1.110262748992   108.89970942   181.79115625
 H      5   4   2     1.113839177530   110.43881237    64.11811266
 H      6   3   1     1.113834991101   110.43865428    64.11865467
 H      6   3   1     1.110255006789   108.90046213   181.79178086

---------------------------
INTERNAL COORDINATES (A.U.)
---------------------------
 C      0   0   0     0.000000000000     0.00000000     0.00000000
 C      1   0   0     2.903190066915     0.00000000     0.00000000
 O      1   2   0     2.673834605818   110.27547626     0.00000000
 O      2   1   3     2.673860360554   110.27450499   300.47430885
 C      4   2   1     2.673841688013   109.04470112    58.78075836
 C      3   1   2     2.673844504232   109.04509211    58.78082551
 H      1   2   3     2.098096869713   108.90435912   240.55951641
 H      1   2   3     2.104850671504   110.86403229   122.63524603
 H      2   1   3     2.098079327040   108.90475355   181.03362590
 H      2   1   3     2.104865735881   110.86383039    63.10821890
 H      5   4   2     2.098092532290   108.89970942   181.79115625
 H      5   4   2     2.104851002763   110.43881237    64.11811266
 H      6   3   1     2.104843091559   110.43865428    64.11865467
 H      6   3   1     2.098077901646   108.90046213   181.79178086

---------------------
BASIS SET INFORMATION
---------------------
There are 3 groups of distinct atoms

 Group   1 Type C   : 8s4p1d contracted to 4s2p1d pattern {5111/31/1}
 Group   2 Type O   : 8s4p1d contracted to 4s2p1d pattern {5111/31/1}
 Group   3 Type H   : 4s contracted to 2s pattern {31}

Atom   0C    basis set group =>   1
Atom   1C    basis set group =>   1
Atom   2O    basis set group =>   2
Atom   3O    basis set group =>   2
Atom   4C    basis set group =>   1
Atom   5C    basis set group =>   1
Atom   6H    basis set group =>   3
Atom   7H    basis set group =>   3
Atom   8H    basis set group =>   3
Atom   9H    basis set group =>   3
Atom  10H    basis set group =>   3
Atom  11H    basis set group =>   3
Atom  12H    basis set group =>   3
Atom  13H    basis set group =>   3
---------------------------------
AUXILIARY/J BASIS SET INFORMATION
---------------------------------
There are 3 groups of distinct atoms

 Group   1 Type C   : 12s5p4d2f1g contracted to 6s4p3d1f1g pattern {711111/2111/211/2/1}
 Group   2 Type O   : 12s5p4d2f1g contracted to 6s4p3d1f1g pattern {711111/2111/211/2/1}
 Group   3 Type H   : 5s2p1d contracted to 3s1p1d pattern {311/2/1}

Atom   0C    basis set group =>   1
Atom   1C    basis set group =>   1
Atom   2O    basis set group =>   2
Atom   3O    basis set group =>   2
Atom   4C    basis set group =>   1
Atom   5C    basis set group =>   1
Atom   6H    basis set group =>   3
Atom   7H    basis set group =>   3
Atom   8H    basis set group =>   3
Atom   9H    basis set group =>   3
Atom  10H    basis set group =>   3
Atom  11H    basis set group =>   3
Atom  12H    basis set group =>   3
Atom  13H    basis set group =>   3
------------------------------------------------------------------------------
                           ORCA GTO INTEGRAL CALCULATION
                           -- RI-GTO INTEGRALS CHOSEN --
------------------------------------------------------------------------------
------------------------------------------------------------------------------
                   ___                                                        
                  /   \      - P O W E R E D   B Y -                         
                 /     \                                                     
                 |  |  |   _    _      __       _____    __    __             
                 |  |  |  | |  | |    /  \     |  _  \  |  |  /  |          
                  \  \/   | |  | |   /    \    | | | |  |  | /  /          
                 / \  \   | |__| |  /  /\  \   | |_| |  |  |/  /          
                |  |  |   |  __  | /  /__\  \  |    /   |      \           
                |  |  |   | |  | | |   __   |  |    \   |  |\   \          
                \     /   | |  | | |  |  |  |  | |\  \  |  | \   \       
                 \___/    |_|  |_| |__|  |__|  |_| \__\ |__|  \__/        
                                                                              
                      - O R C A' S   B I G   F R I E N D -                    
                                      &                                       
                       - I N T E G R A L  F E E D E R -                       
                                                                              
 v1 FN, 2020, v2 2021                                                         
------------------------------------------------------------------------------


Reading SHARK input file OPT_G.SHARKINP.tmp ... ok
----------------------
SHARK INTEGRAL PACKAGE
----------------------

Number of atoms                             ...     14
Number of basis functions                   ...    106
Number of shells                            ...     58
Maximum angular momentum                    ...      2
Integral batch strategy                     ... SHARK/LIBINT Hybrid
RI-J (if used) integral strategy            ... SPLIT-RIJ (Revised 2003 algorithm where possible)
Printlevel                                  ...      1
Contraction scheme used                     ... SEGMENTED contraction
Coulomb Range Separation                    ... NOT USED
Exchange Range Separation                   ... NOT USED
Finite Nucleus Model                        ... NOT USED
Auxiliary Coulomb fitting basis             ... AVAILABLE
   # of basis functions in Aux-J            ...    382
   # of shells in Aux-J                     ...    130
   Maximum angular momentum in Aux-J        ...      4
Auxiliary J/K fitting basis                 ... NOT available
Auxiliary Correlation fitting basis         ... NOT available
Auxiliary 'external' fitting basis          ... NOT available
Integral threshold                          ...     2.500000e-11
Primitive cut-off                           ...     2.500000e-12
Primitive pair pre-selection threshold      ...     2.500000e-12

Calculating pre-screening integrals         ... done (  0.1 sec) Dimension = 58
Organizing shell pair data                  ... done (  0.0 sec)
Shell pair information
Total number of shell pairs                 ...      1711
Shell pairs after pre-screening             ...      1649
Total number of primitive shell pairs       ...      6207
Primitive shell pairs kept                  ...      4493
          la=0 lb=0:    760 shell pairs
          la=1 lb=0:    478 shell pairs
          la=1 lb=1:     78 shell pairs
          la=2 lb=0:    240 shell pairs
          la=2 lb=1:     72 shell pairs
          la=2 lb=2:     21 shell pairs

Calculating one electron integrals          ... done (  0.0 sec)
Calculating RI/J V-Matrix + Cholesky decomp.... done (  0.0 sec)
Calculating Nuclear repulsion               ... done (  0.0 sec) ENN=    263.963129189560 Eh

SHARK setup successfully completed in   0.3 seconds

Maximum memory used throughout the entire GTOINT-calculation: 12.8 MB
-------------------------------------------------------------------------------
                                 ORCA SCF
-------------------------------------------------------------------------------

------------
SCF SETTINGS
------------
Hamiltonian:
 Density Functional     Method          .... DFT(GTOs)
 Exchange Functional    Exchange        .... PBE
   PBE kappa parameter   XKappa         ....  1.024500
   PBE mue parameter    XMuePBE         ....  0.123457
 Correlation Functional Correlation     .... PBE
   PBE beta parameter  CBetaPBE         ....  0.030000
 LDA part of GGA corr.  LDAOpt          .... PW91-LDA
 Gradients option       PostSCFGGA      .... off
 Hybrid DFT is turned on
   Fraction HF Exchange ScalHFX         ....  0.420000
   Scaling of DF-GGA-X  ScalDFX         ....  0.580000
   Scaling of DF-GGA-C  ScalDFC         ....  1.000000
   Scaling of DF-LDA-C  ScalLDAC        ....  1.000000
   Perturbative correction              ....  0.000000
   Density functional embedding theory  .... OFF
 RI-approximation to the Coulomb term is turned on
   Number of AuxJ basis functions       .... 382
   RIJ-ON(X) (HFX calculated with O(N)) .... on
   Number of AuxJ basis functions       .... 382
   RIJ-COSX (HFX calculated with COS-X)).... on


General Settings:
 Integral files         IntName         .... OPT_G
 Hartree-Fock type      HFTyp           .... RHF
 Total Charge           Charge          ....    0
 Multiplicity           Mult            ....    1
 Number of Electrons    NEL             ....   48
 Basis Dimension        Dim             ....  106
 Nuclear Repulsion      ENuc            ....    263.9631291896 Eh

Convergence Acceleration:
 DIIS                   CNVDIIS         .... on
   Start iteration      DIISMaxIt       ....    12
   Startup error        DIISStart       ....  0.200000
   # of expansion vecs  DIISMaxEq       ....     5
   Bias factor          DIISBfac        ....   1.050
   Max. coefficient     DIISMaxC        ....  10.000
 Trust-Rad. Augm. Hess. CNVTRAH         .... auto
   Auto Start mean grad. ratio tolernc. ....  1.125000
   Auto Start start iteration           ....    20
   Auto Start num. interpolation iter.  ....    10
   Max. Number of Micro iterations      ....    16
   Max. Number of Macro iterations      .... Maxiter - #DIIS iter
   Number of Davidson start vectors     ....     2
   Converg. threshold I  (grad. norm)   ....   1.000e-05
   Converg. threshold II (energy diff.) ....   1.000e-08
   Grad. Scal. Fac. for Micro threshold ....   0.100
   Minimum threshold for Micro iter.    ....   0.010
   NR start threshold (gradient norm)   ....   0.001
   Initial trust radius                 ....   0.400
   Minimum AH scaling param. (alpha)    ....   1.000
   Maximum AH scaling param. (alpha)    .... 1000.000
   Orbital update algorithm             .... Taylor
   White noise on init. David. guess    .... on
   Maximum white noise                  ....   0.010
   Quad. conv. algorithm                .... NR
   COSX micro iterations for RIJONX calc.... off
 SOSCF                  CNVSOSCF        .... on
   Start iteration      SOSCFMaxIt      ....   150
   Startup grad/error   SOSCFStart      ....  0.003300
 Level Shifting         CNVShift        .... on
   Level shift para.    LevelShift      ....    0.2500
   Turn off err/grad.   ShiftErr        ....    0.0010
 Zerner damping         CNVZerner       .... off
 Static damping         CNVDamp         .... on
   Fraction old density DampFac         ....    0.7000
   Max. Damping (<1)    DampMax         ....    0.9800
   Min. Damping (>=0)   DampMin         ....    0.0000
   Turn off err/grad.   DampErr         ....    0.1000
 Fernandez-Rico         CNVRico         .... off

SCF Procedure:
 Maximum # iterations   MaxIter         ....   125
 SCF integral mode      SCFMode         .... Direct
   Integral package                     .... SHARK and LIBINT hybrid scheme
 Reset frequency        DirectResetFreq ....    20
 Integral Threshold     Thresh          ....  2.500e-11 Eh
 Primitive CutOff       TCut            ....  2.500e-12 Eh

Convergence Tolerance:
 Convergence Check Mode ConvCheckMode   .... Total+1el-Energy
 Convergence forced     ConvForced      .... 0
 Energy Change          TolE            ....  1.000e-08 Eh
 1-El. energy change                    ....  1.000e-05 Eh
 Orbital Gradient       TolG            ....  1.000e-05
 Orbital Rotation angle TolX            ....  1.000e-05
 DIIS Error             TolErr          ....  5.000e-07


Diagonalization of the overlap matrix:
Smallest eigenvalue                        ... 5.337e-03
Time for diagonalization                   ...    0.012 sec
Threshold for overlap eigenvalues          ... 1.000e-08
Number of eigenvalues below threshold      ... 0
Time for construction of square roots      ...    0.001 sec
Total time needed                          ...    0.013 sec

--------------------------------
INITIAL GUESS: MINIMAL BASIS EHT
--------------------------------
The minimal basis has 38 functions
EHT matrix was diagonalized
Basis set overlap was calculated now projecting the orbitals
Using GuessMode=FMatrix for the initial guess
C*T matrix was formed
Effective Fockian was calculated
Effective Fockian was diagonalized
Initial density was built
                      ------------------
                      INITIAL GUESS DONE
                      ------------------
-------------------
DFT GRID GENERATION
-------------------

General Integration Accuracy     IntAcc      ... 4.159
Radial Grid Type                 RadialGrid  ... OptM3 with GC (2021)
Angular Grid (max. ang.)         AngularGrid ... 3 (Lebedev-194)
Angular grid pruning method      GridPruning ... 4 (adaptive)
Weight generation scheme         WeightScheme... Becke
Basis function cutoff            BFCut       ... 1.0000e-11
Integration weight cutoff        WCut        ... 1.0000e-14
Angular grids for H and He will be reduced by one unit
Partially contracted basis set               ... off
Rotationally invariant grid construction     ... off

Total number of grid points                  ...    30946
Total number of batches                      ...      492
Average number of points per batch           ...       62
Average number of grid points per atom       ...     2210
Time for grid setup =    0.609 sec

--------------------
COSX GRID GENERATION
--------------------

GRIDX 1
-------
General Integration Accuracy     IntAcc      ... 3.816
Radial Grid Type                 RadialGrid  ... OptM3 with GC (2021)
Angular Grid (max. ang.)         AngularGrid ... 1 (Lebedev-50)
Angular grid pruning method      GridPruning ... 4 (adaptive)
Weight generation scheme         WeightScheme... Becke
Basis function cutoff            BFCut       ... 1.0000e-11
Integration weight cutoff        WCut        ... 1.0000e-14
Angular grids for H and He will be reduced by one unit
Partially contracted basis set               ... on
Rotationally invariant grid construction     ... off

Total number of grid points                  ...     7930
Total number of batches                      ...      134
Average number of points per batch           ...       59
Average number of grid points per atom       ...      566
UseSFitting                                  ... on

GRIDX 2
-------
General Integration Accuracy     IntAcc      ... 4.020
Radial Grid Type                 RadialGrid  ... OptM3 with GC (2021)
Angular Grid (max. ang.)         AngularGrid ... 2 (Lebedev-110)
Angular grid pruning method      GridPruning ... 4 (adaptive)
Weight generation scheme         WeightScheme... Becke
Basis function cutoff            BFCut       ... 1.0000e-11
Integration weight cutoff        WCut        ... 1.0000e-14
Angular grids for H and He will be reduced by one unit
Partially contracted basis set               ... on
Rotationally invariant grid construction     ... off

Total number of grid points                  ...    16932
Total number of batches                      ...      270
Average number of points per batch           ...       62
Average number of grid points per atom       ...     1209
UseSFitting                                  ... on

GRIDX 3
-------
General Integration Accuracy     IntAcc      ... 4.338
Radial Grid Type                 RadialGrid  ... OptM3 with GC (2021)
Angular Grid (max. ang.)         AngularGrid ... 3 (Lebedev-194)
Angular grid pruning method      GridPruning ... 4 (adaptive)
Weight generation scheme         WeightScheme... Becke
Basis function cutoff            BFCut       ... 1.0000e-11
Integration weight cutoff        WCut        ... 1.0000e-14
Angular grids for H and He will be reduced by one unit
Partially contracted basis set               ... on
Rotationally invariant grid construction     ... off

Total number of grid points                  ...    37138
Total number of batches                      ...      586
Average number of points per batch           ...       63
Average number of grid points per atom       ...     2653
UseSFitting                                  ... on

Time for X-Grid setup             =    1.441 sec

--------------
SCF ITERATIONS
--------------
ITER       Energy         Delta-E        Max-DP      RMS-DP      [F,P]     Damp
               ***  Starting incremental Fock matrix formation  ***
  0   -306.1747316282   0.000000000000 0.15800425  0.00627541  0.4601125 0.7000
  1   -306.4893049311  -0.314573302896 0.08712637  0.00380077  0.2546457 0.7000
                               ***Turning on DIIS***
  2   -306.6515639298  -0.162258998699 0.03988340  0.00210109  0.1832053 0.7000
  3   -306.7617485700  -0.110184640264 0.02452501  0.00130256  0.1302459 0.7000
  4   -306.8401348199  -0.078386249812 0.05130671  0.00320066  0.0905978 0.0000
  5   -307.0279243487  -0.187789528807 0.00767995  0.00028619  0.0077799 0.0000
  6   -307.0281206180  -0.000196269337 0.00195321  0.00008982  0.0040315 0.0000
                      *** Initiating the SOSCF procedure ***
                           *** Shutting down DIIS ***
                      *** Re-Reading the Fockian *** 
                      *** Removing any level shift *** 
ITER      Energy       Delta-E        Grad      Rot      Max-DP    RMS-DP
  7   -307.02818869  -0.0000680760  0.000382  0.000382  0.001310  0.000062
               *** Restarting incremental Fock matrix formation ***
  8   -307.02813711   0.0000515865  0.000109  0.000159  0.000311  0.000022
  9   -307.02813739  -0.0000002822  0.000137  0.000100  0.000159  0.000009
 10   -307.02813769  -0.0000002960  0.000012  0.000015  0.000031  0.000002
 11   -307.02813768   0.0000000046  0.000014  0.000007  0.000017  0.000001
                 **** Energy Check signals convergence ****
              ***Rediagonalizing the Fockian in SOSCF/NRSCF***

               *****************************************************
               *                     SUCCESS                       *
               *           SCF CONVERGED AFTER  12 CYCLES          *
               *****************************************************

Old exchange energy                            =    -16.804748983 Eh
New exchange energy                            =    -16.804704359 Eh
Exchange energy change after final integration =      0.000044624 Eh
Total energy after final integration           =   -307.028093063 Eh
Final COS-X integration done in                =     8.215 sec

----------------
TOTAL SCF ENERGY
----------------

Total Energy       :         -307.02809306 Eh           -8354.65915 eV

Components:
Nuclear Repulsion  :          263.96312919 Eh            7182.80191 eV
Electronic Energy  :         -570.99122225 Eh          -15537.46107 eV
One Electron Energy:         -941.34598114 Eh          -25615.32640 eV
Two Electron Energy:          370.35475888 Eh           10077.86534 eV
Max COSX asymmetry :            0.00000914 Eh               0.00025 eV

Virial components:
Potential Energy   :         -611.63528608 Eh          -16643.44227 eV
Kinetic Energy     :          304.60719302 Eh            8288.78312 eV
Virial Ratio       :            2.00794761


DFT components:
N(Alpha)           :       24.000079273966 electrons
N(Beta)            :       24.000079273966 electrons
N(Total)           :       48.000158547932 electrons
E(X)               :      -22.342697251882 Eh       
E(C)               :       -2.107001222829 Eh       
E(XC)              :      -24.449698474711 Eh       
DFET-embed. en.    :        0.000000000000 Eh       

---------------
SCF CONVERGENCE
---------------

  Last Energy change         ...   -6.3354e-09  Tolerance :   1.0000e-08
  Last MAX-Density change    ...    1.3323e-15  Tolerance :   1.0000e-07
  Last RMS-Density change    ...    4.5585e-17  Tolerance :   5.0000e-09
  Last Orbital Gradient      ...    5.3482e-07  Tolerance :   1.0000e-05
  Last Orbital Rotation      ...    1.3112e-06  Tolerance :   1.0000e-05

             **** THE GBW FILE WAS UPDATED (OPT_G.gbw) ****
             **** DENSITY OPT_G.scfp WAS UPDATED ****
             **** ENERGY FILE WAS UPDATED (OPT_G.en.tmp) ****
             **** THE GBW FILE WAS UPDATED (OPT_G.gbw) ****
             **** DENSITY OPT_G.scfp WAS UPDATED ****
----------------
ORBITAL ENERGIES
----------------

  NO   OCC          E(Eh)            E(eV) 
   0   2.0000     -19.500301      -530.6302 
   1   2.0000     -19.500259      -530.6290 
   2   2.0000     -10.489977      -285.4468 
   3   2.0000     -10.489918      -285.4452 
   4   2.0000     -10.489772      -285.4412 
   5   2.0000     -10.489730      -285.4401 
   6   2.0000      -1.168813       -31.8050 
   7   2.0000      -1.129986       -30.7485 
   8   2.0000      -0.863594       -23.4996 
   9   2.0000      -0.776463       -21.1286 
  10   2.0000      -0.738686       -20.1007 
  11   2.0000      -0.651492       -17.7280 
  12   2.0000      -0.574074       -15.6213 
  13   2.0000      -0.540927       -14.7194 
  14   2.0000      -0.536117       -14.5885 
  15   2.0000      -0.531799       -14.4710 
  16   2.0000      -0.514408       -13.9977 
  17   2.0000      -0.446565       -12.1517 
  18   2.0000      -0.433954       -11.8085 
  19   2.0000      -0.419271       -11.4089 
  20   2.0000      -0.415402       -11.3037 
  21   2.0000      -0.354526        -9.6471 
  22   2.0000      -0.342578        -9.3220 
  23   2.0000      -0.289285        -7.8718 
  24   0.0000       0.138984         3.7820 
  25   0.0000       0.146647         3.9905 
  26   0.0000       0.164498         4.4762 
  27   0.0000       0.183757         5.0003 
  28   0.0000       0.187906         5.1132 
  29   0.0000       0.211463         5.7542 
  30   0.0000       0.217178         5.9097 
  31   0.0000       0.219865         5.9828 
  32   0.0000       0.221484         6.0269 
  33   0.0000       0.236404         6.4329 
  34   0.0000       0.264552         7.1988 
  35   0.0000       0.273597         7.4450 
  36   0.0000       0.281874         7.6702 
  37   0.0000       0.293670         7.9912 
  38   0.0000       0.522579        14.2201 
  39   0.0000       0.524005        14.2589 
  40   0.0000       0.534431        14.5426 
  41   0.0000       0.544670        14.8212 
  42   0.0000       0.548189        14.9170 
  43   0.0000       0.588210        16.0060 
  44   0.0000       0.609876        16.5956 
  45   0.0000       0.623867        16.9763 
  46   0.0000       0.626199        17.0397 
  47   0.0000       0.652200        17.7473 
  48   0.0000       0.773999        21.0616 
  49   0.0000       0.795126        21.6365 
  50   0.0000       0.888073        24.1657 
  51   0.0000       0.954800        25.9814 
  52   0.0000       0.955898        26.0113 
  53   0.0000       0.972510        26.4634 
  54   0.0000       0.979205        26.6455 
  55   0.0000       0.982605        26.7380 
  56   0.0000       0.999358        27.1939 
  57   0.0000       1.032609        28.0987 
  58   0.0000       1.043839        28.4043 
  59   0.0000       1.051088        28.6016 
  60   0.0000       1.145989        31.1839 
  61   0.0000       1.229134        33.4464 
  62   0.0000       1.268646        34.5216 
  63   0.0000       1.282846        34.9080 
  64   0.0000       1.351297        36.7707 
  65   0.0000       1.409603        38.3573 
  66   0.0000       1.417976        38.5851 
  67   0.0000       1.457831        39.6696 
  68   0.0000       1.471851        40.0511 
  69   0.0000       1.497153        40.7396 
  70   0.0000       1.673400        45.5355 
  71   0.0000       1.708731        46.4969 
  72   0.0000       1.762483        47.9596 
  73   0.0000       1.775517        48.3143 
  74   0.0000       1.829583        49.7855 
  75   0.0000       1.905245        51.8443 
  76   0.0000       1.910515        51.9878 
  77   0.0000       1.930576        52.5336 
  78   0.0000       1.997608        54.3577 
  79   0.0000       2.038849        55.4799 
  80   0.0000       2.068827        56.2956 
  81   0.0000       2.134209        58.0748 
  82   0.0000       2.159549        58.7643 
  83   0.0000       2.172098        59.1058 
  84   0.0000       2.205441        60.0131 
  85   0.0000       2.211429        60.1760 
  86   0.0000       2.238374        60.9092 
  87   0.0000       2.357241        64.1438 
  88   0.0000       2.401394        65.3453 
  89   0.0000       2.452338        66.7315 
  90   0.0000       2.496275        67.9271 
  91   0.0000       2.541321        69.1529 
  92   0.0000       2.567165        69.8561 
  93   0.0000       2.669537        72.6418 
  94   0.0000       2.740115        74.5623 
  95   0.0000       2.797348        76.1197 
  96   0.0000       2.809224        76.4429 
  97   0.0000       2.849633        77.5424 
  98   0.0000       2.993107        81.4466 
  99   0.0000       3.007491        81.8380 
 100   0.0000      13.631588       370.9344 
 101   0.0000      13.783638       375.0719 
 102   0.0000      13.934164       379.1679 
 103   0.0000      14.099193       383.6586 
 104   0.0000      25.572472       695.8623 
 105   0.0000      25.667657       698.4524 

                    ********************************
                    * MULLIKEN POPULATION ANALYSIS *
                    ********************************

-----------------------
MULLIKEN ATOMIC CHARGES
-----------------------
   0 C :   -0.179301
   1 C :   -0.178960
   2 O :   -0.452606
   3 O :   -0.452609
   4 C :   -0.179307
   5 C :   -0.178963
   6 H :    0.212970
   7 H :    0.192560
   8 H :    0.212922
   9 H :    0.192421
  10 H :    0.212975
  11 H :    0.192554
  12 H :    0.192418
  13 H :    0.212926
Sum of atomic charges:   -0.0000000

--------------------------------
MULLIKEN REDUCED ORBITAL CHARGES
--------------------------------
  0 C s       :     3.274130  s :     3.274130
      pz      :     0.896109  p :     2.837404
      px      :     1.104023
      py      :     0.837272
      dz2     :     0.013473  d :     0.067767
      dxz     :     0.014846
      dyz     :     0.016146
      dx2y2   :     0.015624
      dxy     :     0.007678
  1 C s       :     3.274103  s :     3.274103
      pz      :     1.065872  p :     2.837099
      px      :     0.797509
      py      :     0.973718
      dz2     :     0.006812  d :     0.067759
      dxz     :     0.019490
      dyz     :     0.012407
      dx2y2   :     0.017791
      dxy     :     0.011260
  2 O s       :     3.791971  s :     3.791971
      pz      :     1.568470  p :     4.628593
      px      :     1.414283
      py      :     1.645839
      dz2     :     0.004952  d :     0.032043
      dxz     :     0.004789
      dyz     :     0.007829
      dx2y2   :     0.007615
      dxy     :     0.006859
  3 O s       :     3.791975  s :     3.791975
      pz      :     1.568568  p :     4.628591
      px      :     1.414185
      py      :     1.645838
      dz2     :     0.004952  d :     0.032043
      dxz     :     0.004788
      dyz     :     0.007828
      dx2y2   :     0.007614
      dxy     :     0.006860
  4 C s       :     3.274133  s :     3.274133
      pz      :     0.896138  p :     2.837408
      px      :     1.103993
      py      :     0.837277
      dz2     :     0.013480  d :     0.067766
      dxz     :     0.014839
      dyz     :     0.016143
      dx2y2   :     0.015626
      dxy     :     0.007677
  5 C s       :     3.274097  s :     3.274097
      pz      :     1.065871  p :     2.837106
      px      :     0.797530
      py      :     0.973705
      dz2     :     0.006813  d :     0.067759
      dxz     :     0.019490
      dyz     :     0.012407
      dx2y2   :     0.017792
      dxy     :     0.011257
  6 H s       :     0.787030  s :     0.787030
  7 H s       :     0.807440  s :     0.807440
  8 H s       :     0.787078  s :     0.787078
  9 H s       :     0.807579  s :     0.807579
 10 H s       :     0.787025  s :     0.787025
 11 H s       :     0.807446  s :     0.807446
 12 H s       :     0.807582  s :     0.807582
 13 H s       :     0.787074  s :     0.787074


                     *******************************
                     * LOEWDIN POPULATION ANALYSIS *
                     *******************************

----------------------
LOEWDIN ATOMIC CHARGES
----------------------
   0 C :   -0.103824
   1 C :   -0.103770
   2 O :   -0.254951
   3 O :   -0.254955
   4 C :   -0.103823
   5 C :   -0.103772
   6 H :    0.124127
   7 H :    0.107174
   8 H :    0.124110
   9 H :    0.107137
  10 H :    0.124132
  11 H :    0.107168
  12 H :    0.107131
  13 H :    0.124114

-------------------------------
LOEWDIN REDUCED ORBITAL CHARGES
-------------------------------
  0 C s       :     2.923155  s :     2.923155
      pz      :     0.974411  p :     3.038556
      px      :     1.089408
      py      :     0.974737
      dz2     :     0.027982  d :     0.142114
      dxz     :     0.028633
      dyz     :     0.036438
      dx2y2   :     0.033653
      dxy     :     0.015408
  1 C s       :     2.923153  s :     2.923153
      pz      :     1.080181  p :     3.038508
      px      :     0.894347
      py      :     1.063980
      dz2     :     0.013489  d :     0.142109
      dxz     :     0.039131
      dyz     :     0.025300
      dx2y2   :     0.039827
      dxy     :     0.024361
  2 O s       :     3.462269  s :     3.462269
      pz      :     1.600607  p :     4.722937
      px      :     1.466683
      py      :     1.655646
      dz2     :     0.011506  d :     0.069745
      dxz     :     0.012539
      dyz     :     0.014999
      dx2y2   :     0.016526
      dxy     :     0.014175
  3 O s       :     3.462276  s :     3.462276
      pz      :     1.600693  p :     4.722936
      px      :     1.466596
      py      :     1.655647
      dz2     :     0.011505  d :     0.069744
      dxz     :     0.012538
      dyz     :     0.014997
      dx2y2   :     0.016525
      dxy     :     0.014178
  4 C s       :     2.923161  s :     2.923161
      pz      :     0.974414  p :     3.038553
      px      :     1.089388
      py      :     0.974752
      dz2     :     0.027995  d :     0.142110
      dxz     :     0.028621
      dyz     :     0.036428
      dx2y2   :     0.033658
      dxy     :     0.015408
  5 C s       :     2.923152  s :     2.923152
      pz      :     1.080170  p :     3.038510
      px      :     0.894358
      py      :     1.063982
      dz2     :     0.013492  d :     0.142109
      dxz     :     0.039132
      dyz     :     0.025298
      dx2y2   :     0.039831
      dxy     :     0.024355
  6 H s       :     0.875873  s :     0.875873
  7 H s       :     0.892826  s :     0.892826
  8 H s       :     0.875890  s :     0.875890
  9 H s       :     0.892863  s :     0.892863
 10 H s       :     0.875868  s :     0.875868
 11 H s       :     0.892832  s :     0.892832
 12 H s       :     0.892869  s :     0.892869
 13 H s       :     0.875886  s :     0.875886


                      *****************************
                      * MAYER POPULATION ANALYSIS *
                      *****************************

  NA   - Mulliken gross atomic population
  ZA   - Total nuclear charge
  QA   - Mulliken gross atomic charge
  VA   - Mayer's total valence
  BVA  - Mayer's bonded valence
  FA   - Mayer's free valence

  ATOM       NA         ZA         QA         VA         BVA        FA
  0 C      6.1793     6.0000    -0.1793     3.7164     3.7164    -0.0000
  1 C      6.1790     6.0000    -0.1790     3.7163     3.7163     0.0000
  2 O      8.4526     8.0000    -0.4526     2.0124     2.0124     0.0000
  3 O      8.4526     8.0000    -0.4526     2.0124     2.0124     0.0000
  4 C      6.1793     6.0000    -0.1793     3.7164     3.7164     0.0000
  5 C      6.1790     6.0000    -0.1790     3.7164     3.7164    -0.0000
  6 H      0.7870     1.0000     0.2130     0.9156     0.9156    -0.0000
  7 H      0.8074     1.0000     0.1926     0.9142     0.9142    -0.0000
  8 H      0.7871     1.0000     0.2129     0.9156     0.9156    -0.0000
  9 H      0.8076     1.0000     0.1924     0.9142     0.9142    -0.0000
 10 H      0.7870     1.0000     0.2130     0.9156     0.9156    -0.0000
 11 H      0.8074     1.0000     0.1926     0.9142     0.9142    -0.0000
 12 H      0.8076     1.0000     0.1924     0.9142     0.9142     0.0000
 13 H      0.7871     1.0000     0.2129     0.9156     0.9156    -0.0000

  Mayer bond orders larger than 0.100000
B(  0-C ,  1-C ) :   0.9463 B(  0-C ,  2-O ) :   0.9785 B(  0-C ,  6-H ) :   0.9183 
B(  0-C ,  7-H ) :   0.8982 B(  1-C ,  3-O ) :   0.9785 B(  1-C ,  8-H ) :   0.9182 
B(  1-C ,  9-H ) :   0.8982 B(  2-O ,  5-C ) :   0.9786 B(  3-O ,  4-C ) :   0.9786 
B(  4-C ,  5-C ) :   0.9463 B(  4-C , 10-H ) :   0.9183 B(  4-C , 11-H ) :   0.8982 
B(  5-C , 12-H ) :   0.8982 B(  5-C , 13-H ) :   0.9182 

-------
TIMINGS
-------

Total SCF time: 0 days 0 hours 0 min 51 sec 

Total time                  ....      51.760 sec
Sum of individual times     ....      51.503 sec  ( 99.5%)

Fock matrix formation       ....      49.387 sec  ( 95.4%)
  Split-RI-J                ....       3.862 sec  (  7.8% of F)
  Chain of spheres X        ....      38.339 sec  ( 77.6% of F)
  XC integration            ....       7.191 sec  ( 14.6% of F)
    Basis function eval.    ....       2.714 sec  ( 37.7% of XC)
    Density eval.           ....       1.976 sec  ( 27.5% of XC)
    XC-Functional eval.     ....       0.947 sec  ( 13.2% of XC)
    XC-Potential eval.      ....       1.321 sec  ( 18.4% of XC)
Diagonalization             ....       0.020 sec  (  0.0%)
Density matrix formation    ....       0.002 sec  (  0.0%)
Population analysis         ....       0.003 sec  (  0.0%)
Initial guess               ....       0.008 sec  (  0.0%)
Orbital Transformation      ....       0.000 sec  (  0.0%)
Orbital Orthonormalization  ....       0.000 sec  (  0.0%)
DIIS solution               ....       0.023 sec  (  0.0%)
SOSCF solution              ....       0.009 sec  (  0.0%)
Grid generation             ....       2.050 sec  (  4.0%)

Maximum memory used throughout the entire SCF-calculation: 57.3 MB


-------------------------------------------------------------------------------
                          DFT DISPERSION CORRECTION                            
                                                                               
                              DFTD3 V3.1  Rev 1                                
                          USING Becke-Johnson damping                          
-------------------------------------------------------------------------------
The PBEh-3c composite method is recognized
Using three-body term ABC
Active option DFTDOPT                   ...         4   

molecular C6(AA) [au] = 1399.869018 


            DFT-D V3
 parameters
 s6 scaling factor         :     1.0000 
 a1 scaling factor         :     0.4860 
 s8 scaling factor         :     0.0000 
 a2 scaling factor         :     4.5000 
 Damping factor alpha9(ATM):    16.0000 
 ad hoc parameters k1-k3   :    16.0000     1.3333    -4.0000 

 Edisp/kcal,au: -3.730885504632  -0.005945543870 
 E6   /kcal   :  -3.747681647 
 E8   /kcal   :  -0.000000000 
 E6(ABC)      :   0.016796143 
 % E8         :   0.000000000 
 % E6(ABC)    :  -0.450191858 

-------------------------   ----------------
Dispersion correction           -0.005945544
-------------------------   ----------------

------------------   -----------------
gCP correction             0.045039534
------------------   -----------------

-------------------------   --------------------
FINAL SINGLE POINT ENERGY      -306.988999072826
-------------------------   --------------------

------------------------------------------------------------------------------
                         ORCA SCF GRADIENT CALCULATION
------------------------------------------------------------------------------

 ... reading COSX grid (gridx3)
Gradient of the Kohn-Sham DFT energy:
Kohn-Sham wavefunction type      ... RKS
Hartree-Fock exchange scaling    ...    0.420
Number of operators              ...    1
Number of atoms                  ...   14
Basis set dimensions             ...  106
Integral neglect threshold       ... 2.5e-11
Integral primitive cutoff        ... 2.5e-12
SHARK Integral package           ... ON

Nuc. rep. gradient       (SHARK) ... done (  0.0 sec)
HCore & Overlap gradient (SHARK) ... done (  0.1 sec)
RI-J gradient            (SHARK) ... done (  1.0 sec)
COSX-gradient                    ... done (  7.8 sec)
Exchange-correlation gradient    ... done
Dispersion correction            ... done
gCP correction                   ... done

------------------
CARTESIAN GRADIENT
------------------

   1   C   :    0.009518106    0.002079550   -0.001718133
   2   C   :    0.000139359    0.000997256    0.009845610
   3   O   :   -0.005029029    0.003288564    0.004473226
   4   O   :    0.005028096   -0.003292425   -0.004478840
   5   C   :   -0.009504281   -0.002083885    0.001721062
   6   C   :   -0.000139874   -0.000985621   -0.009843301
   7   H   :   -0.010752216   -0.000450174   -0.004840897
   8   H   :    0.005207144    0.003096709   -0.007356390
   9   H   :   -0.005781468   -0.004789153   -0.009139006
  10   H   :   -0.005327273   -0.003032286    0.007304864
  11   H   :    0.010753681    0.000450403    0.004833864
  12   H   :   -0.005205944   -0.003106533    0.007357182
  13   H   :    0.005319089    0.003041275   -0.007301009
  14   H   :    0.005776056    0.004787248    0.009141773

Difference to translation invariance:
           :    0.0000014476    0.0000009266    0.0000000059

Difference to rotation invariance:
           :    0.0007178508    0.0002635567    0.0008495157

Norm of the cartesian gradient     ...    0.0377533094
RMS gradient                       ...    0.0058254621
MAX gradient                       ...    0.0107536814

-------
TIMINGS
-------

Total SCF gradient time            ...       12.436 sec

One electron gradient       ....       0.147 sec  (  1.2%)
RI-J Coulomb gradient       ....       1.026 sec  (  8.2%)
COSX gradient               ....       7.774 sec  ( 62.5%)
XC gradient                 ....       2.814 sec  ( 22.6%)

Maximum memory used throughout the entire SCFGRAD-calculation: 45.2 MB
------------------------------------------------------------------------------
                         ORCA GEOMETRY RELAXATION STEP
------------------------------------------------------------------------------

Reading the OPT-File                    .... done
Getting information on internals        .... done
Copying old internal coords+grads       .... done
Making the new internal coordinates     .... (new redundants).... done
Validating the new internal coordinates .... (new redundants).... done
Calculating the B-matrix                .... done
Calculating the G,G- and P matrices     .... done
Transforming gradient to internals      .... done
Projecting the internal gradient        .... done
Number of atoms                         ....  14
Number of internal coordinates          ....  70
Current Energy                          ....  -306.988999073 Eh
Current gradient norm                   ....     0.037753309 Eh/bohr
Maximum allowed component of the step   ....  0.300
Current trust radius                    ....  0.300
Evaluating the initial hessian          ....  (Almloef) done
Projecting the Hessian                  .... done
Forming the augmented Hessian           .... done
Diagonalizing the augmented Hessian     .... done
Last element of RFO vector              ....  0.987902632
Lowest eigenvalues of augmented Hessian:
 -0.004554695  0.015801562  0.022403290  0.031376233  0.079981858
Length of the computed step             ....  0.156974407
The final length of the internal step   ....  0.156974407
Converting the step to cartesian space:
 Initial RMS(Int)=    0.0187620302
Transforming coordinates:
 Iter   0:  RMS(Cart)=    0.0239050154 RMS(Int)=    0.0188633061
 Iter   1:  RMS(Cart)=    0.0002899605 RMS(Int)=    0.0002321918
 Iter   2:  RMS(Cart)=    0.0000051287 RMS(Int)=    0.0000040157
 Iter   3:  RMS(Cart)=    0.0000000693 RMS(Int)=    0.0000000503
done
Storing new coordinates                 .... done

                                .--------------------.
          ----------------------|Geometry convergence|-------------------------
          Item                value                   Tolerance       Converged
          ---------------------------------------------------------------------
          RMS gradient        0.0045007721            0.0001000000      NO
          MAX gradient        0.0112324665            0.0003000000      NO
          RMS step            0.0187620302            0.0020000000      NO
          MAX step            0.0331505893            0.0040000000      NO
          ........................................................
          Max(Bonds)      0.0175      Max(Angles)    0.98
          Max(Dihed)        1.47      Max(Improp)    0.00
          ---------------------------------------------------------------------

The optimization has not yet converged - more geometry cycles are needed


    ---------------------------------------------------------------------------
                         Redundant Internal Coordinates
                            (Angstroem and degrees)

        Definition                    Value    dE/dq     Step     New-Value
    ----------------------------------------------------------------------------
     1. B(C   1,C   0)                1.5363  0.010425 -0.0149    1.5214   
     2. B(O   2,C   0)                1.4149  0.005643 -0.0058    1.4091   
     3. B(O   3,C   1)                1.4149  0.005828 -0.0060    1.4090   
     4. B(C   4,O   3)                1.4149  0.005642 -0.0058    1.4091   
     5. B(C   5,C   4)                1.5363  0.010433 -0.0149    1.5214   
     6. B(C   5,O   2)                1.4149  0.005820 -0.0060    1.4090   
     7. B(H   6,C   0)                1.1103  0.011211 -0.0175    1.0928   
     8. B(H   7,C   0)                1.1138  0.009096 -0.0144    1.0994   
     9. B(H   8,C   1)                1.1103  0.011232 -0.0175    1.0927   
    10. B(H   9,C   1)                1.1138  0.009133 -0.0145    1.0994   
    11. B(H  10,C   4)                1.1103  0.011209 -0.0175    1.0928   
    12. B(H  11,C   4)                1.1138  0.009097 -0.0144    1.0994   
    13. B(H  12,C   5)                1.1138  0.009126 -0.0144    1.0994   
    14. B(H  13,C   5)                1.1103  0.011231 -0.0175    1.0927   
    15. A(C   1,C   0,H   7)          110.86  0.004404   -0.98    109.88   
    16. A(O   2,C   0,H   7)          110.44 -0.000772    0.07    110.52   
    17. A(H   6,C   0,H   7)          107.37 -0.000712    0.18    107.56   
    18. A(O   2,C   0,H   6)          108.90  0.002568   -0.61    108.29   
    19. A(C   1,C   0,O   2)          110.28 -0.001819    0.54    110.82   
    20. A(C   1,C   0,H   6)          108.90 -0.003696    0.80    109.70   
    21. A(C   0,C   1,H   9)          110.86  0.004306   -0.95    109.92   
    22. A(C   0,C   1,O   3)          110.27 -0.001745    0.52    110.79   
    23. A(O   3,C   1,H   9)          110.44 -0.000733    0.07    110.51   
    24. A(O   3,C   1,H   8)          108.90  0.002569   -0.62    108.28   
    25. A(H   8,C   1,H   9)          107.37 -0.000696    0.19    107.56   
    26. A(C   0,C   1,H   8)          108.90 -0.003731    0.80    109.70   
    27. A(C   0,O   2,C   5)          109.05  0.000655    0.63    109.67   
    28. A(C   1,O   3,C   4)          109.04  0.000655    0.63    109.67   
    29. A(O   3,C   4,C   5)          110.28 -0.001818    0.54    110.82   
    30. A(H  10,C   4,H  11)          107.37 -0.000713    0.18    107.56   
    31. A(C   5,C   4,H  11)          110.87  0.004408   -0.98    109.88   
    32. A(O   3,C   4,H  11)          110.44 -0.000782    0.08    110.52   
    33. A(C   5,C   4,H  10)          108.90 -0.003694    0.80    109.70   
    34. A(O   3,C   4,H  10)          108.90  0.002570   -0.61    108.29   
    35. A(H  12,C   5,H  13)          107.37 -0.000696    0.19    107.56   
    36. A(C   4,C   5,H  13)          108.90 -0.003730    0.80    109.70   
    37. A(O   2,C   5,H  13)          108.90  0.002571   -0.62    108.28   
    38. A(O   2,C   5,C   4)          110.28 -0.001741    0.51    110.79   
    39. A(C   4,C   5,H  12)          110.87  0.004309   -0.95    109.92   
    40. A(O   2,C   5,H  12)          110.44 -0.000743    0.07    110.51   
    41. D(H   8,C   1,C   0,H   7)    -56.33 -0.000510    1.22    -55.11   
    42. D(H   9,C   1,C   0,H   6)    -56.33 -0.000450    1.19    -55.14   
    43. D(O   3,C   1,C   0,H   6)   -178.97 -0.001258    1.40   -177.57   
    44. D(H   9,C   1,C   0,O   2)     63.11 -0.000684    1.26     64.37   
    45. D(O   3,C   1,C   0,O   2)    -59.53 -0.001491    1.47    -58.06   
    46. D(O   3,C   1,C   0,H   7)     63.11 -0.000719    1.27     64.38   
    47. D(H   8,C   1,C   0,O   2)   -178.97 -0.001282    1.42   -177.54   
    48. D(H   9,C   1,C   0,H   7)   -174.26  0.000089    1.06   -173.20   
    49. D(H   8,C   1,C   0,H   6)     61.59 -0.001049    1.35     62.95   
    50. D(C   5,O   2,C   0,H   6)    178.22 -0.001152   -0.46    177.77   
    51. D(C   5,O   2,C   0,H   7)    -64.10 -0.000926   -0.56    -64.66   
    52. D(C   5,O   2,C   0,C   1)     58.78  0.002881   -1.38     57.40   
    53. D(C   4,O   3,C   1,H   9)    -64.10 -0.000834   -0.59    -64.69   
    54. D(C   4,O   3,C   1,H   8)    178.22 -0.001103   -0.49    177.73   
    55. D(C   4,O   3,C   1,C   0)     58.78  0.002927   -1.40     57.38   
    56. D(H  11,C   4,O   3,C   1)     64.12  0.000933    0.55     64.67   
    57. D(H  10,C   4,O   3,C   1)   -178.21  0.001155    0.45   -177.76   
    58. D(C   5,C   4,O   3,C   1)    -58.77 -0.002874    1.37    -57.39   
    59. D(H  13,C   5,C   4,H  11)     56.30  0.000511   -1.21     55.09   
    60. D(H  13,C   5,C   4,H  10)    -61.62  0.001047   -1.34    -62.97   
    61. D(H  13,C   5,C   4,O   3)    178.94  0.001276   -1.41    177.52   
    62. D(H  12,C   5,C   4,H  10)     56.30  0.000451   -1.18     55.12   
    63. D(H  12,C   5,C   4,O   3)    -63.14  0.000680   -1.25    -64.39   
    64. D(O   2,C   5,C   4,H  11)    -63.14  0.000715   -1.26    -64.39   
    65. D(O   2,C   5,C   4,H  10)    178.94  0.001251   -1.39    177.55   
    66. D(H  12,C   5,C   4,H  11)    174.23 -0.000085   -1.05    173.18   
    67. D(O   2,C   5,C   4,O   3)     59.50  0.001480   -1.46     58.04   
    68. D(H  13,C   5,O   2,C   0)   -178.21  0.001105    0.49   -177.72   
    69. D(H  12,C   5,O   2,C   0)     64.12  0.000840    0.59     64.71   
    70. D(C   4,C   5,O   2,C   0)    -58.77 -0.002921    1.39    -57.38   
    ----------------------------------------------------------------------------

         *************************************************************
         *                GEOMETRY OPTIMIZATION CYCLE   2            *
         *************************************************************
---------------------------------
CARTESIAN COORDINATES (ANGSTROEM)
---------------------------------
  C     -7.360003    1.342622   -6.999271
  C     -7.413707   -0.059995   -6.412427
  O     -6.916758    2.271329   -6.036614
  O     -6.149033   -0.447476   -5.927009
  C     -5.705672    0.481206   -4.964381
  C     -5.652117    1.883907   -5.551079
  H     -8.357386    1.641855   -7.330636
  H     -6.700642    1.354940   -7.878972
  H     -7.717044   -0.771151   -7.184609
  H     -8.163830   -0.101720   -5.609777
  H     -4.708191    0.182034   -4.633254
  H     -6.364857    0.468737   -4.084552
  H     -4.901890    1.925883   -6.353620
  H     -5.348980    2.594969   -4.778730

----------------------------
CARTESIAN COORDINATES (A.U.)
----------------------------
  NO LB      ZA    FRAG     MASS         X           Y           Z
   0 C     6.0000    0    12.011  -13.908390    2.537189  -13.226704
   1 C     6.0000    0    12.011  -14.009876   -0.113374  -12.117730
   2 O     8.0000    0    15.999  -13.070779    4.292190  -11.407547
   3 O     8.0000    0    15.999  -11.619988   -0.845606  -11.200424
   4 C     6.0000    0    12.011  -10.782157    0.909348   -9.381320
   5 C     6.0000    0    12.011  -10.680952    3.560067  -10.490019
   6 H     1.0000    0     1.008  -15.793171    3.102656  -13.852895
   7 H     1.0000    0     1.008  -12.662378    2.560465  -14.889099
   8 H     1.0000    0     1.008  -14.583100   -1.457265  -13.576943
   9 H     1.0000    0     1.008  -15.427403   -0.192224  -10.600942
  10 H     1.0000    0     1.008   -8.897192    0.343995   -8.755582
  11 H     1.0000    0     1.008  -12.027837    0.885785   -7.718684
  12 H     1.0000    0     1.008   -9.263230    3.639392  -12.006601
  13 H     1.0000    0     1.008  -10.108107    4.903781   -9.030491

--------------------------------
INTERNAL COORDINATES (ANGSTROEM)
--------------------------------
 C      0   0   0     0.000000000000     0.00000000     0.00000000
 C      1   0   0     1.521382860503     0.00000000     0.00000000
 O      1   2   0     1.409138162659   110.80580695     0.00000000
 O      2   1   3     1.408961363367   110.77818289   301.94689796
 C      4   2   1     1.409138514764   109.66510021    57.38244007
 C      3   1   2     1.408956888518   109.66544709    57.39843120
 H      1   2   3     1.092756222820   109.70673928   240.48453382
 H      1   2   3     1.099446899267   109.88501120   122.42939642
 H      2   1   3     1.092713225747   109.70809451   182.45773281
 H      2   1   3     1.099396284874   109.91892416    64.37155072
 H      5   4   2     1.092755995541   108.28670642   182.24845346
 H      5   4   2     1.099445444002   110.52153679    64.66998503
 H      6   3   1     1.099396551503   110.51466969    64.70703454
 H      6   3   1     1.092714326008   108.27886338   182.28558115

---------------------------
INTERNAL COORDINATES (A.U.)
---------------------------
 C      0   0   0     0.000000000000     0.00000000     0.00000000
 C      1   0   0     2.874996951192     0.00000000     0.00000000
 O      1   2   0     2.662885212283   110.80580695     0.00000000
 O      2   1   3     2.662551110041   110.77818289   301.94689796
 C      4   2   1     2.662885877664   109.66510021    57.38244007
 C      3   1   2     2.662542653801   109.66544709    57.39843120
 H      1   2   3     2.065009992267   109.70673928   240.48453382
 H      1   2   3     2.077653538403   109.88501120   122.42939642
 H      2   1   3     2.064928739575   109.70809451   182.45773281
 H      2   1   3     2.077557891061   109.91892416    64.37155072
 H      5   4   2     2.065009562772   108.28670642   182.24845346
 H      5   4   2     2.077650788351   110.52153679    64.66998503
 H      6   3   1     2.077558394918   110.51466969    64.70703454
 H      6   3   1     2.064930818767   108.27886338   182.28558115

------------------------------------------------------------------------------
                   ___                                                        
                  /   \      - P O W E R E D   B Y -                         
                 /     \                                                     
                 |  |  |   _    _      __       _____    __    __             
                 |  |  |  | |  | |    /  \     |  _  \  |  |  /  |          
                  \  \/   | |  | |   /    \    | | | |  |  | /  /          
                 / \  \   | |__| |  /  /\  \   | |_| |  |  |/  /          
                |  |  |   |  __  | /  /__\  \  |    /   |      \           
                |  |  |   | |  | | |   __   |  |    \   |  |\   \          
                \     /   | |  | | |  |  |  |  | |\  \  |  | \   \       
                 \___/    |_|  |_| |__|  |__|  |_| \__\ |__|  \__/        
                                                                              
                      - O R C A' S   B I G   F R I E N D -                    
                                      &                                       
                       - I N T E G R A L  F E E D E R -                       
                                                                              
 v1 FN, 2020, v2 2021                                                         
------------------------------------------------------------------------------


Reading SHARK input file OPT_G.SHARKINP.tmp ... ok
----------------------
SHARK INTEGRAL PACKAGE
----------------------

Number of atoms                             ...     14
Number of basis functions                   ...    106
Number of shells                            ...     58
Maximum angular momentum                    ...      2
Integral batch strategy                     ... SHARK/LIBINT Hybrid
RI-J (if used) integral strategy            ... SPLIT-RIJ (Revised 2003 algorithm where possible)
Printlevel                                  ...      1
Contraction scheme used                     ... SEGMENTED contraction
Coulomb Range Separation                    ... NOT USED
Exchange Range Separation                   ... NOT USED
Finite Nucleus Model                        ... NOT USED
Auxiliary Coulomb fitting basis             ... AVAILABLE
   # of basis functions in Aux-J            ...    382
   # of shells in Aux-J                     ...    130
   Maximum angular momentum in Aux-J        ...      4
Auxiliary J/K fitting basis                 ... NOT available
Auxiliary Correlation fitting basis         ... NOT available
Auxiliary 'external' fitting basis          ... NOT available
Integral threshold                          ...     2.500000e-11
Primitive cut-off                           ...     2.500000e-12
Primitive pair pre-selection threshold      ...     2.500000e-12

Calculating pre-screening integrals         ... done (  0.1 sec) Dimension = 58
Organizing shell pair data                  ... done (  0.0 sec)
Shell pair information
Total number of shell pairs                 ...      1711
Shell pairs after pre-screening             ...      1651
Total number of primitive shell pairs       ...      6207
Primitive shell pairs kept                  ...      4503
          la=0 lb=0:    762 shell pairs
          la=1 lb=0:    478 shell pairs
          la=1 lb=1:     78 shell pairs
          la=2 lb=0:    240 shell pairs
          la=2 lb=1:     72 shell pairs
          la=2 lb=2:     21 shell pairs

Calculating one electron integrals          ... done (  0.0 sec)
Calculating RI/J V-Matrix + Cholesky decomp.... done (  0.0 sec)
Calculating Nuclear repulsion               ... done (  0.0 sec) ENN=    265.612867996375 Eh

SHARK setup successfully completed in   0.3 seconds

Maximum memory used throughout the entire GTOINT-calculation: 12.8 MB

Diagonalization of the overlap matrix:
Smallest eigenvalue                        ... 5.123e-03
Time for diagonalization                   ...    0.002 sec
Threshold for overlap eigenvalues          ... 1.000e-08
Number of eigenvalues below threshold      ... 0
Time for construction of square roots      ...    0.001 sec
Total time needed                          ...    0.003 sec

-------------------
DFT GRID GENERATION
-------------------

General Integration Accuracy     IntAcc      ... 4.159
Radial Grid Type                 RadialGrid  ... OptM3 with GC (2021)
Angular Grid (max. ang.)         AngularGrid ... 3 (Lebedev-194)
Angular grid pruning method      GridPruning ... 4 (adaptive)
Weight generation scheme         WeightScheme... Becke
Basis function cutoff            BFCut       ... 1.0000e-11
Integration weight cutoff        WCut        ... 1.0000e-14
Angular grids for H and He will be reduced by one unit
Partially contracted basis set               ... off
Rotationally invariant grid construction     ... off

Total number of grid points                  ...    30930
Total number of batches                      ...      490
Average number of points per batch           ...       63
Average number of grid points per atom       ...     2209
Time for grid setup =    0.389 sec

--------------------
COSX GRID GENERATION
--------------------

GRIDX 1
-------
General Integration Accuracy     IntAcc      ... 3.816
Radial Grid Type                 RadialGrid  ... OptM3 with GC (2021)
Angular Grid (max. ang.)         AngularGrid ... 1 (Lebedev-50)
Angular grid pruning method      GridPruning ... 4 (adaptive)
Weight generation scheme         WeightScheme... Becke
Basis function cutoff            BFCut       ... 1.0000e-11
Integration weight cutoff        WCut        ... 1.0000e-14
Angular grids for H and He will be reduced by one unit
Partially contracted basis set               ... on
Rotationally invariant grid construction     ... off

Total number of grid points                  ...     7922
Total number of batches                      ...      134
Average number of points per batch           ...       59
Average number of grid points per atom       ...      566
UseSFitting                                  ... on

GRIDX 2
-------
General Integration Accuracy     IntAcc      ... 4.020
Radial Grid Type                 RadialGrid  ... OptM3 with GC (2021)
Angular Grid (max. ang.)         AngularGrid ... 2 (Lebedev-110)
Angular grid pruning method      GridPruning ... 4 (adaptive)
Weight generation scheme         WeightScheme... Becke
Basis function cutoff            BFCut       ... 1.0000e-11
Integration weight cutoff        WCut        ... 1.0000e-14
Angular grids for H and He will be reduced by one unit
Partially contracted basis set               ... on
Rotationally invariant grid construction     ... off

Total number of grid points                  ...    16926
Total number of batches                      ...      270
Average number of points per batch           ...       62
Average number of grid points per atom       ...     1209
UseSFitting                                  ... on

GRIDX 3
-------
General Integration Accuracy     IntAcc      ... 4.338
Radial Grid Type                 RadialGrid  ... OptM3 with GC (2021)
Angular Grid (max. ang.)         AngularGrid ... 3 (Lebedev-194)
Angular grid pruning method      GridPruning ... 4 (adaptive)
Weight generation scheme         WeightScheme... Becke
Basis function cutoff            BFCut       ... 1.0000e-11
Integration weight cutoff        WCut        ... 1.0000e-14
Angular grids for H and He will be reduced by one unit
Partially contracted basis set               ... on
Rotationally invariant grid construction     ... off

Total number of grid points                  ...    37102
Total number of batches                      ...      584
Average number of points per batch           ...       63
Average number of grid points per atom       ...     2650
UseSFitting                                  ... on

Time for X-Grid setup             =    1.088 sec

--------------
SCF ITERATIONS
--------------
ITER       Energy         Delta-E        Max-DP      RMS-DP      [F,P]     Damp
               ***  Starting incremental Fock matrix formation  ***
  0   -307.0312162503   0.000000000000 0.00249286  0.00011992  0.0063987 0.7000
                      *** Initiating the SOSCF procedure ***
                      *** Re-Reading the Fockian *** 
                      *** Removing any level shift *** 
ITER      Energy       Delta-E        Grad      Rot      Max-DP    RMS-DP
  1   -307.03142745  -0.0002111996  0.000821  0.000821  0.005714  0.000330
               *** Restarting incremental Fock matrix formation ***
  2   -307.03189157  -0.0004641216  0.001050  0.001355  0.002708  0.000158
  3   -307.03190830  -0.0000167265  0.000996  0.000689  0.001311  0.000064
  4   -307.03193420  -0.0000259061  0.000165  0.000178  0.000426  0.000020
  5   -307.03193427  -0.0000000617  0.000192  0.000097  0.000207  0.000011
  6   -307.03193469  -0.0000004196  0.000010  0.000008  0.000014  0.000001
  7   -307.03193469  -0.0000000058  0.000004  0.000005  0.000005  0.000000
                 **** Energy Check signals convergence ****
[...]
New exchange energy                            =    -16.838415026 Eh
Exchange energy change after final integration =      0.000038973 Eh
Total energy after final integration           =   -307.032320110 Eh
Final COS-X integration done in                =     3.208 sec

----------------
TOTAL SCF ENERGY
----------------

Total Energy       :         -307.03232011 Eh           -8354.77418 eV

Components:
Nuclear Repulsion  :          265.68853701 Eh            7229.75265 eV
Electronic Energy  :         -572.72085712 Eh          -15584.52682 eV
One Electron Energy:         -944.71782436 Eh          -25707.07892 eV
Two Electron Energy:          371.99696725 Eh           10122.55210 eV
Max COSX asymmetry :            0.00000856 Eh               0.00023 eV

Virial components:
Potential Energy   :         -611.91809524 Eh          -16651.13790 eV
Kinetic Energy     :          304.88577513 Eh            8296.36372 eV
Virial Ratio       :            2.00704049


DFT components:
N(Alpha)           :       24.000066875148 electrons
N(Beta)            :       24.000066875148 electrons
N(Total)           :       48.000133750296 electrons
E(X)               :      -22.383657418643 Eh       
E(C)               :       -2.110980431479 Eh       
E(XC)              :      -24.494637850122 Eh       
DFET-embed. en.    :        0.000000000000 Eh       

---------------
SCF CONVERGENCE
---------------

  Last Energy change         ...   -1.1474e-09  Tolerance :   1.0000e-08
  Last MAX-Density change    ...    8.8818e-16  Tolerance :   1.0000e-07
  Last RMS-Density change    ...    6.0387e-17  Tolerance :   5.0000e-09
  Last Orbital Gradient      ...    1.3790e-06  Tolerance :   1.0000e-05
  Last Orbital Rotation      ...    1.9081e-06  Tolerance :   1.0000e-05

             **** THE GBW FILE WAS UPDATED (OPT_G.gbw) ****
             **** DENSITY OPT_G.scfp WAS UPDATED ****
             **** ENERGY FILE WAS UPDATED (OPT_G.en.tmp) ****
             **** THE GBW FILE WAS UPDATED (OPT_G.gbw) ****
             **** DENSITY OPT_G.scfp WAS UPDATED ****
----------------
ORBITAL ENERGIES
----------------

  NO   OCC          E(Eh)            E(eV) 
   0   2.0000     -19.499045      -530.5960 
   1   2.0000     -19.499009      -530.5950 
   2   2.0000     -10.484262      -285.2913 
   3   2.0000     -10.484200      -285.2896 
   4   2.0000     -10.484020      -285.2847 
   5   2.0000     -10.483978      -285.2836 
   6   2.0000      -1.173096       -31.9216 
   7   2.0000      -1.132685       -30.8219 
   8   2.0000      -0.871529       -23.7155 
   9   2.0000      -0.780233       -21.2312 
  10   2.0000      -0.745943       -20.2981 
  11   2.0000      -0.650811       -17.7095 
  12   2.0000      -0.578631       -15.7453 
  13   2.0000      -0.547419       -14.8960 
  14   2.0000      -0.540253       -14.7010 
  15   2.0000      -0.539472       -14.6798 
  16   2.0000      -0.512679       -13.9507 
  17   2.0000      -0.453530       -12.3412 
  18   2.0000      -0.432821       -11.7776 
  19   2.0000      -0.424211       -11.5434 
  20   2.0000      -0.413965       -11.2646 
  21   2.0000      -0.352521        -9.5926 
  22   2.0000      -0.342067        -9.3081 
  23   2.0000      -0.289786        -7.8855 
  24   0.0000       0.135881         3.6975 
  25   0.0000       0.159207         4.3323 
  26   0.0000       0.170491         4.6393 
  27   0.0000       0.185557         5.0493 
  28   0.0000       0.193197         5.2572 
  29   0.0000       0.213938         5.8215 
  30   0.0000       0.217472         5.9177 
  31   0.0000       0.227912         6.2018 
  32   0.0000       0.231488         6.2991 
  33   0.0000       0.245929         6.6921 
  34   0.0000       0.271289         7.3821 
  35   0.0000       0.280024         7.6198 
  36   0.0000       0.281364         7.6563 
  37   0.0000       0.307420         8.3653 
  38   0.0000       0.515517        14.0279 
  39   0.0000       0.521742        14.1973 
  40   0.0000       0.542114        14.7517 
  41   0.0000       0.542555        14.7637 
  42   0.0000       0.544326        14.8119 
  43   0.0000       0.600789        16.3483 
  44   0.0000       0.605300        16.4710 
  45   0.0000       0.621965        16.9245 
  46   0.0000       0.631363        17.1803 
  47   0.0000       0.647199        17.6112 
  48   0.0000       0.769835        20.9483 
  49   0.0000       0.802670        21.8418 
  50   0.0000       0.885377        24.0923 
  51   0.0000       0.963145        26.2085 
  52   0.0000       0.977025        26.5862 
  53   0.0000       0.981422        26.7059 
  54   0.0000       0.984716        26.7955 
  55   0.0000       0.993638        27.0383 
  56   0.0000       1.012570        27.5534 
  57   0.0000       1.046207        28.4687 
  58   0.0000       1.052196        28.6317 
  59   0.0000       1.054902        28.7054 
  60   0.0000       1.147225        31.2176 
  61   0.0000       1.234153        33.5830 
  62   0.0000       1.280757        34.8512 
  63   0.0000       1.283458        34.9247 
  64   0.0000       1.334346        36.3094 
  65   0.0000       1.397884        38.0384 
  66   0.0000       1.440365        39.1943 
  67   0.0000       1.468296        39.9544 
  68   0.0000       1.478419        40.2298 
  69   0.0000       1.493817        40.6488 
  70   0.0000       1.644198        44.7409 
  71   0.0000       1.721721        46.8504 
  72   0.0000       1.775397        48.3110 
  73   0.0000       1.775909        48.3249 
  74   0.0000       1.848511        50.3005 
  75   0.0000       1.915585        52.1257 
  76   0.0000       1.922247        52.3070 
  77   0.0000       1.930646        52.5356 
  78   0.0000       2.009049        54.6690 
  79   0.0000       2.040402        55.5221 
  80   0.0000       2.090254        56.8787 
  81   0.0000       2.149301        58.4855 
  82   0.0000       2.164442        58.8975 
  83   0.0000       2.202446        59.9316 
  84   0.0000       2.230078        60.6835 
  85   0.0000       2.248101        61.1740 
  86   0.0000       2.249513        61.2124 
  87   0.0000       2.369460        64.4763 
  88   0.0000       2.417640        65.7873 
  89   0.0000       2.473997        67.3209 
  90   0.0000       2.513824        68.4046 
  91   0.0000       2.550675        69.4074 
  92   0.0000       2.561884        69.7124 
  93   0.0000       2.659687        72.3738 
  94   0.0000       2.738350        74.5143 
  95   0.0000       2.834007        77.1172 
  96   0.0000       2.834206        77.1227 
  97   0.0000       2.888791        78.6080 
  98   0.0000       2.994074        81.4729 
  99   0.0000       3.012308        81.9691 
 100   0.0000      13.639530       371.1505 
 101   0.0000      13.795857       375.4043 
 102   0.0000      13.959263       379.8509 
 103   0.0000      14.120319       384.2334 
 104   0.0000      25.586165       696.2349 
 105   0.0000      25.670419       698.5276 

                    ********************************
                    * MULLIKEN POPULATION ANALYSIS *
                    ********************************

-----------------------
MULLIKEN ATOMIC CHARGES
-----------------------
   0 C :   -0.179763
   1 C :   -0.179363
   2 O :   -0.453363
   3 O :   -0.453363
   4 C :   -0.179763
   5 C :   -0.179363
   6 H :    0.215917
   7 H :    0.190425
   8 H :    0.215839
   9 H :    0.190309
  10 H :    0.215917
  11 H :    0.190425
  12 H :    0.190308
  13 H :    0.215839
Sum of atomic charges:   -0.0000000

--------------------------------
MULLIKEN REDUCED ORBITAL CHARGES
--------------------------------
  0 C s       :     3.260625  s :     3.260625
      pz      :     0.904347  p :     2.849505
      px      :     1.101383
      py      :     0.843775
      dz2     :     0.014266  d :     0.069633
      dxz     :     0.014744
      dyz     :     0.016259
      dx2y2   :     0.015659
      dxy     :     0.008705
  1 C s       :     3.260583  s :     3.260583
      pz      :     1.063921  p :     2.849135
      px      :     0.804728
      py      :     0.980486
      dz2     :     0.006857  d :     0.069646
      dxz     :     0.019982
      dyz     :     0.013098
      dx2y2   :     0.018504
      dxy     :     0.011205
  2 O s       :     3.785661  s :     3.785661
      pz      :     1.573143  p :     4.635374
      px      :     1.420730
      py      :     1.641501
      dz2     :     0.004904  d :     0.032328
      dxz     :     0.005072
      dyz     :     0.007781
      dx2y2   :     0.007604
      dxy     :     0.006968
  3 O s       :     3.785660  s :     3.785660
      pz      :     1.573145  p :     4.635374
      px      :     1.420728
      py      :     1.641501
      dz2     :     0.004904  d :     0.032328
      dxz     :     0.005072
      dyz     :     0.007781
      dx2y2   :     0.007604
      dxy     :     0.006968
  4 C s       :     3.260625  s :     3.260625
      pz      :     0.904349  p :     2.849505
      px      :     1.101382
      py      :     0.843774
      dz2     :     0.014267  d :     0.069633
      dxz     :     0.014743
      dyz     :     0.016259
      dx2y2   :     0.015659
      dxy     :     0.008705
  5 C s       :     3.260582  s :     3.260582
      pz      :     1.063921  p :     2.849135
      px      :     0.804729
      py      :     0.980485
      dz2     :     0.006858  d :     0.069646
      dxz     :     0.019982
      dyz     :     0.013098
      dx2y2   :     0.018504
      dxy     :     0.011205
  6 H s       :     0.784083  s :     0.784083
  7 H s       :     0.809575  s :     0.809575
  8 H s       :     0.784161  s :     0.784161
  9 H s       :     0.809691  s :     0.809691
 10 H s       :     0.784083  s :     0.784083
 11 H s       :     0.809575  s :     0.809575
 12 H s       :     0.809692  s :     0.809692
 13 H s       :     0.784161  s :     0.784161


                     *******************************
                     * LOEWDIN POPULATION ANALYSIS *
                     *******************************

----------------------
LOEWDIN ATOMIC CHARGES
----------------------
   0 C :   -0.105924
   1 C :   -0.105894
   2 O :   -0.249163
   3 O :   -0.249163
   4 C :   -0.105925
   5 C :   -0.105894
   6 H :    0.125311
   7 H :    0.105215
   8 H :    0.125297
   9 H :    0.105158
  10 H :    0.125311
  11 H :    0.105214
  12 H :    0.105158
  13 H :    0.125297

-------------------------------
LOEWDIN REDUCED ORBITAL CHARGES
-------------------------------
  0 C s       :     2.911466  s :     2.911466
      pz      :     0.979417  p :     3.047447
      px      :     1.086630
      py      :     0.981400
      dz2     :     0.029739  d :     0.147011
      dxz     :     0.028599
      dyz     :     0.036916
      dx2y2   :     0.034216
      dxy     :     0.017542
  1 C s       :     2.911456  s :     2.911456
      pz      :     1.078284  p :     3.047387
      px      :     0.899546
      py      :     1.069557
      dz2     :     0.013718  d :     0.147051
      dxz     :     0.040396
      dyz     :     0.026922
      dx2y2   :     0.041408
      dxy     :     0.024607
  2 O s       :     3.452208  s :     3.452208
      pz      :     1.603487  p :     4.725657
      px      :     1.471625
      py      :     1.650545
      dz2     :     0.011598  d :     0.071298
      dxz     :     0.013350
      dyz     :     0.015065
      dx2y2   :     0.016690
      dxy     :     0.014595
  3 O s       :     3.452207  s :     3.452207
      pz      :     1.603489  p :     4.725657
      px      :     1.471623
      py      :     1.650546
      dz2     :     0.011598  d :     0.071298
      dxz     :     0.013350
      dyz     :     0.015065
      dx2y2   :     0.016690
      dxy     :     0.014596
  4 C s       :     2.911466  s :     2.911466
      pz      :     0.979418  p :     3.047447
      px      :     1.086629
      py      :     0.981400
      dz2     :     0.029739  d :     0.147012
      dxz     :     0.028599
      dyz     :     0.036915
      dx2y2   :     0.034217
      dxy     :     0.017542
  5 C s       :     2.911455  s :     2.911455
      pz      :     1.078284  p :     3.047387
      px      :     0.899546
      py      :     1.069557
      dz2     :     0.013718  d :     0.147051
      dxz     :     0.040396
      dyz     :     0.026922
      dx2y2   :     0.041408
      dxy     :     0.024607
  6 H s       :     0.874689  s :     0.874689
  7 H s       :     0.894785  s :     0.894785
  8 H s       :     0.874703  s :     0.874703
  9 H s       :     0.894842  s :     0.894842
 10 H s       :     0.874689  s :     0.874689
 11 H s       :     0.894786  s :     0.894786
 12 H s       :     0.894842  s :     0.894842
 13 H s       :     0.874703  s :     0.874703


                      *****************************
                      * MAYER POPULATION ANALYSIS *
                      *****************************

  NA   - Mulliken gross atomic population
  ZA   - Total nuclear charge
  QA   - Mulliken gross atomic charge
  VA   - Mayer's total valence
  BVA  - Mayer's bonded valence
  FA   - Mayer's free valence

  ATOM       NA         ZA         QA         VA         BVA        FA
  0 C      6.1798     6.0000    -0.1798     3.7277     3.7277    -0.0000
  1 C      6.1794     6.0000    -0.1794     3.7276     3.7276     0.0000
  2 O      8.4534     8.0000    -0.4534     2.0180     2.0180     0.0000
  3 O      8.4534     8.0000    -0.4534     2.0180     2.0180     0.0000
  4 C      6.1798     6.0000    -0.1798     3.7277     3.7277     0.0000
  5 C      6.1794     6.0000    -0.1794     3.7276     3.7276    -0.0000
  6 H      0.7841     1.0000     0.2159     0.9130     0.9130    -0.0000
  7 H      0.8096     1.0000     0.1904     0.9121     0.9121    -0.0000
  8 H      0.7842     1.0000     0.2158     0.9130     0.9130    -0.0000
  9 H      0.8097     1.0000     0.1903     0.9121     0.9121    -0.0000
 10 H      0.7841     1.0000     0.2159     0.9130     0.9130    -0.0000
 11 H      0.8096     1.0000     0.1904     0.9121     0.9121    -0.0000
 12 H      0.8097     1.0000     0.1903     0.9121     0.9121     0.0000
 13 H      0.7842     1.0000     0.2158     0.9130     0.9130    -0.0000

  Mayer bond orders larger than 0.100000
B(  0-C ,  1-C ) :   0.9533 B(  0-C ,  2-O ) :   0.9829 B(  0-C ,  6-H ) :   0.9187 
B(  0-C ,  7-H ) :   0.8997 B(  1-C ,  3-O ) :   0.9828 B(  1-C ,  8-H ) :   0.9187 
B(  1-C ,  9-H ) :   0.8998 B(  2-O ,  5-C ) :   0.9828 B(  3-O ,  4-C ) :   0.9829 
B(  4-C ,  5-C ) :   0.9533 B(  4-C , 10-H ) :   0.9187 B(  4-C , 11-H ) :   0.8997 
B(  5-C , 12-H ) :   0.8998 B(  5-C , 13-H ) :   0.9187 

-------
TIMINGS
-------

Total SCF time: 0 days 0 hours 0 min 16 sec 

Total time                  ....      16.334 sec
Sum of individual times     ....      16.216 sec  ( 99.3%)

Fock matrix formation       ....      15.063 sec  ( 92.2%)
  Split-RI-J                ....       1.045 sec  (  6.9% of F)
  Chain of spheres X        ....      12.654 sec  ( 84.0% of F)
  XC integration            ....       1.383 sec  (  9.2% of F)
    Basis function eval.    ....       0.609 sec  ( 44.0% of XC)
    Density eval.           ....       0.285 sec  ( 20.6% of XC)
    XC-Functional eval.     ....       0.171 sec  ( 12.4% of XC)
    XC-Potential eval.      ....       0.248 sec  ( 17.9% of XC)
Diagonalization             ....       0.002 sec  (  0.0%)
Density matrix formation    ....       0.001 sec  (  0.0%)
Population analysis         ....       0.002 sec  (  0.0%)
Initial guess               ....       0.003 sec  (  0.0%)
Orbital Transformation      ....       0.000 sec  (  0.0%)
Orbital Orthonormalization  ....       0.001 sec  (  0.0%)
DIIS solution               ....       0.000 sec  (  0.0%)
SOSCF solution              ....       0.004 sec  (  0.0%)
Grid generation             ....       1.141 sec  (  7.0%)

Maximum memory used throughout the entire SCF-calculation: 57.4 MB


-------------------------------------------------------------------------------
                          DFT DISPERSION CORRECTION                            
                                                                               
                              DFTD3 V3.1  Rev 1                                
                          USING Becke-Johnson damping                          
-------------------------------------------------------------------------------
The PBEh-3c composite method is recognized
Using three-body term ABC
Active option DFTDOPT                   ...         4   

molecular C6(AA) [au] = 1399.526766 


            DFT-D V3
 parameters
 s6 scaling factor         :     1.0000 
 a1 scaling factor         :     0.4860 
 s8 scaling factor         :     0.0000 
 a2 scaling factor         :     4.5000 
 Damping factor alpha9(ATM):    16.0000 
 ad hoc parameters k1-k3   :    16.0000     1.3333    -4.0000 

 Edisp/kcal,au: -3.744316550955  -0.005966947602 
 E6   /kcal   :  -3.760880167 
 E8   /kcal   :  -0.000000000 
 E6(ABC)      :   0.016563616 
 % E8         :   0.000000000 
 % E6(ABC)    :  -0.442366870 

-------------------------   ----------------
Dispersion correction           -0.005966948
-------------------------   ----------------

------------------   -----------------
gCP correction             0.046352071
------------------   -----------------

-------------------------   --------------------
FINAL SINGLE POINT ENERGY      -306.991934986297
-------------------------   --------------------

                                *** OPTIMIZATION RUN DONE ***

                            ***************************************
                            *     ORCA property calculations      *
                            ***************************************

                                    ---------------------
                                    Active property flags
                                    ---------------------
   (+) Dipole Moment


------------------------------------------------------------------------------
                       ORCA ELECTRIC PROPERTIES CALCULATION
------------------------------------------------------------------------------

Dipole Moment Calculation                       ... on
Quadrupole Moment Calculation                   ... off
Polarizability Calculation                      ... off
GBWName                                         ... OPT_G.gbw
Electron density                                ... OPT_G.scfp
The origin for moment calculation is the CENTER OF MASS  = (-12.345327,  1.723314 -11.303929)

-------------
DIPOLE MOMENT
-------------
                                X             Y             Z
Electronic contribution:     -0.00001      -0.00000      -0.00001
Nuclear contribution   :      0.00001       0.00000       0.00001
                        -----------------------------------------
Total Dipole Moment    :     -0.00000      -0.00000      -0.00000
                        -----------------------------------------
Magnitude (a.u.)       :      0.00000
Magnitude (Debye)      :      0.00000



--------------------
Rotational spectrum 
--------------------
 
Rotational constants in cm-1:     0.171660     0.157800     0.092244 
Rotational constants in MHz :  5146.248509  4730.728308  2765.414363 

 Dipole components along the rotational axes: 
x,y,z [a.u.] :    -0.000001     0.000001    -0.000000 
x,y,z [Debye]:    -0.000002     0.000001    -0.000000 

 

Timings for individual modules:

Sum of individual times         ...      256.170 sec (=   4.270 min)
GTO integral calculation        ...        2.058 sec (=   0.034 min)   0.8 %
SCF iterations                  ...      195.886 sec (=   3.265 min)  76.5 %
SCF Gradient evaluation         ...       57.865 sec (=   0.964 min)  22.6 %
Geometry relaxation             ...        0.361 sec (=   0.006 min)   0.1 %
                             ****ORCA TERMINATED NORMALLY****
TOTAL RUN TIME: 0 days 0 hours 4 minutes 17 seconds 331 msec
