
                                 *****************
                                 * O   R   C   A *
                                 *****************

                                            #,                                       
                                            ###                                      
                                            ####                                     
                                            #####                                    
                                            ######                                   
                                           ########,                                 
                                     ,,################,,,,,                         
                               ,,#################################,,                 
                          ,,##########################################,,             
                       ,#########################################, ''#####,          
                    ,#############################################,,   '####,        
                  ,##################################################,,,,####,       
                ,###########''''           ''''###############################       
              ,#####''   ,,,,##########,,,,          '''####'''          '####       
            ,##' ,,,,###########################,,,                        '##       
           ' ,,###''''                  '''############,,,                           
         ,,##''                                '''############,,,,        ,,,,,,###''
      ,#''                                            '''#######################'''  
     '                                                          ''''####''''         
             ,#######,   #######,   ,#######,      ##                                
            ,#'     '#,  ##    ##  ,#'     '#,    #''#        ######   ,####,        
            ##       ##  ##   ,#'  ##            #'  '#       #        #'  '#        
            ##       ##  #######   ##           ,######,      #####,   #    #        
            '#,     ,#'  ##    ##  '#,     ,#' ,#      #,         ##   #,  ,#        
             '#######'   ##     ##  '#######'  #'      '#     #####' # '####'        



                  #######################################################
                  #                        -***-                        #
                  #          Department of theory and spectroscopy      #
                  #    Directorship and core code : Frank Neese         #
                  #        Max Planck Institute fuer Kohlenforschung    #
                  #                Kaiser Wilhelm Platz 1               #
                  #                 D-45470 Muelheim/Ruhr               #
                  #                      Germany                        #
                  #                                                     #
                  #                  All rights reserved                #
                  #                        -***-                        #
                  #######################################################


                         Program Version 5.0.2 -  RELEASE  -


 With contributions from (in alphabetic order):
   Daniel Aravena         : Magnetic Suceptibility
   Michael Atanasov       : Ab Initio Ligand Field Theory (pilot matlab implementation)
   Alexander A. Auer      : GIAO ZORA, VPT2 properties, NMR spectrum
   Ute Becker             : Parallelization
   Giovanni Bistoni       : ED, misc. LED, open-shell LED, HFLD
   Martin Brehm           : Molecular dynamics
   Dmytro Bykov           : SCF Hessian
   Vijay G. Chilkuri      : MRCI spin determinant printing, contributions to CSF-ICE
   Dipayan Datta          : RHF DLPNO-CCSD density
   Achintya Kumar Dutta   : EOM-CC, STEOM-CC
   Dmitry Ganyushin       : Spin-Orbit,Spin-Spin,Magnetic field MRCI
   Miquel Garcia          : C-PCM and meta-GGA Hessian, CC/C-PCM, Gaussian charge scheme
   Yang Guo               : DLPNO-NEVPT2, F12-NEVPT2, CIM, IAO-localization
   Andreas Hansen         : Spin unrestricted coupled pair/coupled cluster methods
   Benjamin Helmich-Paris : MC-RPA, TRAH-SCF, COSX integrals
   Lee Huntington         : MR-EOM, pCC
   Robert Izsak           : Overlap fitted RIJCOSX, COSX-SCS-MP3, EOM
   Marcus Kettner         : VPT2
   Christian Kollmar      : KDIIS, OOCD, Brueckner-CCSD(T), CCSD density, CASPT2, CASPT2-K
   Simone Kossmann        : Meta GGA functionals, TD-DFT gradient, OOMP2, MP2 Hessian
   Martin Krupicka        : Initial AUTO-CI
   Lucas Lang             : DCDCAS
   Marvin Lechner         : AUTO-CI (C++ implementation), FIC-MRCC
   Dagmar Lenk            : GEPOL surface, SMD
   Dimitrios Liakos       : Extrapolation schemes; Compound Job, initial MDCI parallelization
   Dimitrios Manganas     : Further ROCIS development; embedding schemes
   Dimitrios Pantazis     : SARC Basis sets
   Anastasios Papadopoulos: AUTO-CI, single reference methods and gradients
   Taras Petrenko         : DFT Hessian,TD-DFT gradient, ASA, ECA, R-Raman, ABS, FL, XAS/XES, NRVS
   Peter Pinski           : DLPNO-MP2, DLPNO-MP2 Gradient
   Christoph Reimann      : Effective Core Potentials
   Marius Retegan         : Local ZFS, SOC
   Christoph Riplinger    : Optimizer, TS searches, QM/MM, DLPNO-CCSD(T), (RO)-DLPNO pert. Triples
   Tobias Risthaus        : Range-separated hybrids, TD-DFT gradient, RPA, STAB
   Michael Roemelt        : Original ROCIS implementation
   Masaaki Saitow         : Open-shell DLPNO-CCSD energy and density
   Barbara Sandhoefer     : DKH picture change effects
   Avijit Sen             : IP-ROCIS
   Kantharuban Sivalingam : CASSCF convergence, NEVPT2, FIC-MRCI
   Bernardo de Souza      : ESD, SOC TD-DFT
   Georgi Stoychev        : AutoAux, RI-MP2 NMR, DLPNO-MP2 response
   Willem Van den Heuvel  : Paramagnetic NMR
   Boris Wezisla          : Elementary symmetry handling
   Frank Wennmohs         : Technical directorship


 We gratefully acknowledge several colleagues who have allowed us to
 interface, adapt or use parts of their codes:
   Stefan Grimme, W. Hujo, H. Kruse, P. Pracht,  : VdW corrections, initial TS optimization,
                  C. Bannwarth, S. Ehlert          DFT functionals, gCP, sTDA/sTD-DF
   Ed Valeev, F. Pavosevic, A. Kumar             : LibInt (2-el integral package), F12 methods
   Garnet Chan, S. Sharma, J. Yang, R. Olivares  : DMRG
   Ulf Ekstrom                                   : XCFun DFT Library
   Mihaly Kallay                                 : mrcc  (arbitrary order and MRCC methods)
   Jiri Pittner, Ondrej Demel                    : Mk-CCSD
   Frank Weinhold                                : gennbo (NPA and NBO analysis)
   Christopher J. Cramer and Donald G. Truhlar   : smd solvation model
   Lars Goerigk                                  : TD-DFT with DH, B97 family of functionals
   V. Asgeirsson, H. Jonsson                     : NEB implementation
   FAccTs GmbH                                   : IRC, NEB, NEB-TS, DLPNO-Multilevel, CI-OPT
                                                   MM, QMMM, 2- and 3-layer-ONIOM, Crystal-QMMM,
                                                   LR-CPCM, SF, NACMEs, symmetry and pop. for TD-DFT,
                                                   nearIR, NL-DFT gradient (VV10), updates on ESD,
                                                   ML-optimized integration grids
   S Lehtola, MJT Oliveira, MAL Marques          : LibXC Library
   Liviu Ungur et al                             : ANISO software


 Your calculation uses the libint2 library for the computation of 2-el integrals
 For citations please refer to: http://libint.valeyev.net

 Your ORCA version has been built with support for libXC version: 5.1.0
 For citations please refer to: https://tddft.org/programs/libxc/

 This ORCA versions uses:
   CBLAS   interface :  Fast vector & matrix operations
   LAPACKE interface :  Fast linear algebra routines
   SCALAPACK package :  Parallel linear algebra routines
   Shared memory     :  Shared parallel matrices
   BLAS/LAPACK       :  OpenBLAS 0.3.15  USE64BITINT DYNAMIC_ARCH NO_AFFINITY Haswell SINGLE_THREADED
        Core in use  :  Haswell
   Copyright (c) 2011-2014, The OpenBLAS Project




***************************************
The coordinates will be read from file: F.xyz
***************************************


Your calculation utilizes the geometrical counterpoise correction gCP
Please cite in your paper:
H.Kruse, S. Grimme J.Chem.Phys., 136, (2012), 154101 
   

Your calculation utilizes the atom-pairwise dispersion correction
with the Becke-Johnson damping scheme (D3BJ)
Cite in your paper:
S.Grimme, S.Ehrlich, L.Goerigk, J Comput Chem, (2011), 32, 1456–1465 
S.Grimme, J.Antony, S.Ehrlich and H.Krieg, J.Chem.Phys., 132, (2010), 154104 
   

Your calculation employs the composite approach PBEh-3c.
Please cite in your paper:
S. Grimme, J. G. Brandenburg, C. Bannwarth, A. Hansen J.Chem.Phys., 143, (2015), 054107 
   

================================================================================

----- Orbital basis set information -----
Your calculation utilizes the basis: def2-mSVP

----- AuxJ basis set information -----
Your calculation utilizes the auxiliary basis: def2/J
   F. Weigend, Phys. Chem. Chem. Phys. 8, 1057 (2006).

================================================================================
                                        WARNINGS
                       Please study these warnings very carefully!
================================================================================


WARNING: Geometry Optimization
  ===> : Switching off AutoStart
         For restart on a previous wavefunction, please use MOREAD

INFO   : the flag for use of the SHARK integral package has been found!

================================================================================
                                       INPUT FILE
================================================================================
NAME = OPT_F.inp
|  1> ! PBEh-3c Opt
|  2> 
|  3> *xyzfile 0 1 F.xyz
|  4> 
|  5>                          ****END OF INPUT****
================================================================================

                       *****************************
                       * Geometry Optimization Run *
                       *****************************

Geometry optimization settings:
Update method            Update   .... BFGS
Choice of coordinates    CoordSys .... Z-matrix Internals
Initial Hessian          InHess   .... Almoef's Model

Convergence Tolerances:
Energy Change            TolE     ....  5.0000e-06 Eh
Max. Gradient            TolMAXG  ....  3.0000e-04 Eh/bohr
RMS Gradient             TolRMSG  ....  1.0000e-04 Eh/bohr
Max. Displacement        TolMAXD  ....  4.0000e-03 bohr
RMS Displacement         TolRMSD  ....  2.0000e-03 bohr
Strict Convergence                ....  False
------------------------------------------------------------------------------
                        ORCA OPTIMIZATION COORDINATE SETUP
------------------------------------------------------------------------------

The optimization will be done in new redundant internal coordinates
Making redundant internal coordinates   ...  (new redundants) done
Evaluating the initial hessian          ...  (Almloef) done
Evaluating the coordinates              ...  done
Calculating the B-matrix                .... done
Calculating the G-matrix                .... done
Diagonalizing the G-matrix              .... done
The first mode is                       ....   32
The number of degrees of freedom        ....   30

    -----------------------------------------------------------------
                    Redundant Internal Coordinates


    -----------------------------------------------------------------
         Definition                    Initial Value    Approx d2E/dq
    -----------------------------------------------------------------
      1. B(C   1,C   0)                  1.5420         0.357414   
      2. B(C   2,C   1)                  1.4957         0.423753   
      3. B(C   3,C   0)                  1.4957         0.423753   
      4. B(N   4,C   3)                  1.3388         0.675522   
      5. B(N   4,C   2)                  1.3388         0.675519   
      6. B(O   5,C   2)                  1.2209         1.041537   
      7. B(O   6,C   3)                  1.2209         1.041569   
      8. B(H   7,C   0)                  1.1112         0.333178   
      9. B(H   8,C   0)                  1.1112         0.333165   
     10. B(H   9,C   1)                  1.1111         0.333183   
     11. B(H  10,C   1)                  1.1112         0.333174   
     12. B(H  11,N   4)                  1.0311         0.400409   
     13. A(C   1,C   0,H   8)          111.4585         0.317911   
     14. A(C   3,C   0,H   8)          110.1019         0.326905   
     15. A(C   3,C   0,H   7)          110.1718         0.326907   
     16. A(C   1,C   0,C   3)          102.3941         0.368479   
     17. A(C   1,C   0,H   7)          111.4584         0.317914   
     18. A(H   7,C   0,H   8)          110.9521         0.283861   
     19. A(C   0,C   1,H   9)          111.4580         0.317914   
     20. A(C   0,C   1,C   2)          102.3937         0.368479   
     21. A(H   9,C   1,H  10)          110.9524         0.283863   
     22. A(C   2,C   1,H   9)          110.1721         0.326908   
     23. A(C   2,C   1,H  10)          110.1025         0.326906   
     24. A(C   0,C   1,H  10)          111.4581         0.317913   
     25. A(N   4,C   2,O   5)          122.7913         0.478176   
     26. A(C   1,C   2,O   5)          124.2607         0.442098   
     27. A(C   1,C   2,N   4)          112.9480         0.409137   
     28. A(N   4,C   3,O   6)          122.7910         0.478179   
     29. A(C   0,C   3,O   6)          124.2612         0.442100   
     30. A(C   0,C   3,N   4)          112.9478         0.409137   
     31. A(C   3,N   4,H  11)          125.3419         0.359169   
     32. A(C   2,N   4,H  11)          125.3417         0.359169   
     33. A(C   2,N   4,C   3)          109.3164         0.441847   
     34. D(C   2,C   1,C   0,H   8)    117.6191         0.010259   
     35. D(H  10,C   1,C   0,H   8)   -124.7040         0.010259   
     36. D(H   9,C   1,C   0,C   3)   -117.8156         0.010259   
     37. D(H  10,C   1,C   0,H   7)     -0.1388         0.010259   
     38. D(H   9,C   1,C   0,H   8)     -0.1390         0.010259   
     39. D(H   9,C   1,C   0,H   7)    124.4262         0.010259   
     40. D(H  10,C   1,C   0,C   3)    117.6194         0.010259   
     41. D(C   2,C   1,C   0,C   3)     -0.0575         0.010259   
     42. D(C   2,C   1,C   0,H   7)   -117.8157         0.010259   
     43. D(O   5,C   2,C   1,H  10)     61.3834         0.013271   
     44. D(O   5,C   2,C   1,H   9)    -61.3092         0.013271   
     45. D(N   4,C   2,C   1,H  10)   -118.5862         0.013271   
     46. D(O   5,C   2,C   1,C   0)   -179.9786         0.013271   
     47. D(N   4,C   2,C   1,H   9)    118.7211         0.013271   
     48. D(N   4,C   2,C   1,C   0)      0.0518         0.013271   
     49. D(O   6,C   3,C   0,H   8)     61.3828         0.013271   
     50. D(O   6,C   3,C   0,H   7)    -61.3090         0.013271   
     51. D(O   6,C   3,C   0,C   1)   -179.9788         0.013271   
     52. D(N   4,C   3,C   0,H   8)   -118.5860         0.013271   
     53. D(N   4,C   3,C   0,H   7)    118.7222         0.013271   
     54. D(N   4,C   3,C   0,C   1)      0.0524         0.013271   
     55. D(H  11,N   4,C   3,O   6)      0.0093         0.037502   
     56. D(H  11,N   4,C   3,C   0)    179.9786         0.037502   
     57. D(C   2,N   4,C   3,O   6)   -179.9914         0.037502   
     58. D(C   2,N   4,C   3,C   0)     -0.0220         0.037502   
     59. D(H  11,N   4,C   2,O   5)      0.0082         0.037501   
     60. D(H  11,N   4,C   2,C   1)    179.9784         0.037501   
     61. D(C   3,N   4,C   2,O   5)   -179.9912         0.037501   
     62. D(C   3,N   4,C   2,C   1)     -0.0210         0.037501   
    -----------------------------------------------------------------

Number of atoms                         .... 12
Number of degrees of freedom            .... 62

         *************************************************************
         *                GEOMETRY OPTIMIZATION CYCLE   1            *
         *************************************************************
---------------------------------
CARTESIAN COORDINATES (ANGSTROEM)
---------------------------------
  C     -6.924540   -1.098070   -5.449410
  C     -5.730620   -1.017170   -4.476840
  C     -5.218680    0.368440   -4.711570
  C     -6.910590    0.254360   -6.088030
  N     -5.925240    1.037130   -5.631290
  O     -4.259200    0.853820   -4.133310
  O     -7.706360    0.621270   -6.938140
  H     -7.881140   -1.255590   -4.906490
  H     -6.769830   -1.885120   -6.218370
  H     -4.947580   -1.763240   -4.731550
  H     -6.058090   -1.129560   -3.421000
  H     -5.739640    2.003440   -5.939510

----------------------------
CARTESIAN COORDINATES (A.U.)
----------------------------
  NO LB      ZA    FRAG     MASS         X           Y           Z
   0 C     6.0000    0    12.011  -13.085484   -2.075052  -10.297892
   1 C     6.0000    0    12.011  -10.829302   -1.922173   -8.460002
   2 C     6.0000    0    12.011   -9.861876    0.696251   -8.903577
   3 C     6.0000    0    12.011  -13.059123    0.480671  -11.504709
   4 N     7.0000    0    14.007  -11.197081    1.959892  -10.641596
   5 O     8.0000    0    15.999   -8.048722    1.613486   -7.810824
   6 O     8.0000    0    15.999  -14.562910    1.174030  -13.111184
   7 H     1.0000    0     1.008  -14.893196   -2.372721   -9.271922
   8 H     1.0000    0     1.008  -12.793125   -3.562361  -11.751016
   9 H     1.0000    0     1.008   -9.349571   -3.332041   -8.941334
  10 H     1.0000    0     1.008  -11.448131   -2.134559   -6.464753
  11 H     1.0000    0     1.008  -10.846348    3.785953  -11.224047

--------------------------------
INTERNAL COORDINATES (ANGSTROEM)
--------------------------------
 C      0   0   0     0.000000000000     0.00000000     0.00000000
 C      1   0   0     1.542038320309     0.00000000     0.00000000
 C      2   1   0     1.495692417778   102.39366957     0.00000000
 C      1   2   3     1.495692820000   102.39407275   359.94254922
 N      4   1   2     1.338751255088   112.94776614     0.05238988
 O      3   2   1     1.220893214986   124.26068127   180.02144377
 O      4   1   2     1.220884864801   124.26123172   180.02118728
 H      1   2   3     1.111151761372   111.45839438   242.18434959
 H      1   2   3     1.111162620052   111.45849310   117.61913924
 H      2   1   3     1.111147726722   111.45801674   242.24186378
 H      2   1   3     1.111155353045   111.45808588   117.67687853
 H      5   4   1     1.031116843282   125.34187583   179.97860269

---------------------------
INTERNAL COORDINATES (A.U.)
---------------------------
 C      0   0   0     0.000000000000     0.00000000     0.00000000
 C      1   0   0     2.914030113395     0.00000000     0.00000000
 C      2   1   0     2.826449050184   102.39366957     0.00000000
 C      1   2   3     2.826449810273   102.39407275   359.94254922
 N      4   1   2     2.529873233560   112.94776614     0.05238988
 O      3   2   1     2.307153815087   124.26068127   180.02144377
 O      4   1   2     2.307138035523   124.26123172   180.02118728
 H      1   2   3     2.099772522217   111.45839438   242.18434959
 H      1   2   3     2.099793042148   111.45849310   117.61913924
 H      2   1   3     2.099764897834   111.45801674   242.24186378
 H      2   1   3     2.099779309495   111.45808588   117.67687853
 H      5   4   1     1.948528445877   125.34187583   179.97860269

---------------------
BASIS SET INFORMATION
---------------------
There are 4 groups of distinct atoms

 Group   1 Type C   : 8s4p1d contracted to 4s2p1d pattern {5111/31/1}
 Group   2 Type N   : 8s4p1d contracted to 4s2p1d pattern {5111/31/1}
 Group   3 Type O   : 8s4p1d contracted to 4s2p1d pattern {5111/31/1}
 Group   4 Type H   : 4s contracted to 2s pattern {31}

Atom   0C    basis set group =>   1
Atom   1C    basis set group =>   1
Atom   2C    basis set group =>   1
Atom   3C    basis set group =>   1
Atom   4N    basis set group =>   2
Atom   5O    basis set group =>   3
Atom   6O    basis set group =>   3
Atom   7H    basis set group =>   4
Atom   8H    basis set group =>   4
Atom   9H    basis set group =>   4
Atom  10H    basis set group =>   4
Atom  11H    basis set group =>   4
---------------------------------
AUXILIARY/J BASIS SET INFORMATION
---------------------------------
There are 4 groups of distinct atoms

 Group   1 Type C   : 12s5p4d2f1g contracted to 6s4p3d1f1g pattern {711111/2111/211/2/1}
 Group   2 Type N   : 12s5p4d2f1g contracted to 6s4p3d1f1g pattern {711111/2111/211/2/1}
 Group   3 Type O   : 12s5p4d2f1g contracted to 6s4p3d1f1g pattern {711111/2111/211/2/1}
 Group   4 Type H   : 5s2p1d contracted to 3s1p1d pattern {311/2/1}

Atom   0C    basis set group =>   1
Atom   1C    basis set group =>   1
Atom   2C    basis set group =>   1
Atom   3C    basis set group =>   1
Atom   4N    basis set group =>   2
Atom   5O    basis set group =>   3
Atom   6O    basis set group =>   3
Atom   7H    basis set group =>   4
Atom   8H    basis set group =>   4
Atom   9H    basis set group =>   4
Atom  10H    basis set group =>   4
Atom  11H    basis set group =>   4
------------------------------------------------------------------------------
                           ORCA GTO INTEGRAL CALCULATION
                           -- RI-GTO INTEGRALS CHOSEN --
------------------------------------------------------------------------------
------------------------------------------------------------------------------
                   ___                                                        
                  /   \      - P O W E R E D   B Y -                         
                 /     \                                                     
                 |  |  |   _    _      __       _____    __    __             
                 |  |  |  | |  | |    /  \     |  _  \  |  |  /  |          
                  \  \/   | |  | |   /    \    | | | |  |  | /  /          
                 / \  \   | |__| |  /  /\  \   | |_| |  |  |/  /          
                |  |  |   |  __  | /  /__\  \  |    /   |      \           
                |  |  |   | |  | | |   __   |  |    \   |  |\   \          
                \     /   | |  | | |  |  |  |  | |\  \  |  | \   \       
                 \___/    |_|  |_| |__|  |__|  |_| \__\ |__|  \__/        
                                                                              
                      - O R C A' S   B I G   F R I E N D -                    
                                      &                                       
                       - I N T E G R A L  F E E D E R -                       
                                                                              
 v1 FN, 2020, v2 2021                                                         
------------------------------------------------------------------------------


Reading SHARK input file OPT_F.SHARKINP.tmp ... ok
----------------------
SHARK INTEGRAL PACKAGE
----------------------

Number of atoms                             ...     12
Number of basis functions                   ...    115
Number of shells                            ...     59
Maximum angular momentum                    ...      2
Integral batch strategy                     ... SHARK/LIBINT Hybrid
RI-J (if used) integral strategy            ... SPLIT-RIJ (Revised 2003 algorithm where possible)
Printlevel                                  ...      1
Contraction scheme used                     ... SEGMENTED contraction
Coulomb Range Separation                    ... NOT USED
Exchange Range Separation                   ... NOT USED
Finite Nucleus Model                        ... NOT USED
Auxiliary Coulomb fitting basis             ... AVAILABLE
   # of basis functions in Aux-J            ...    398
   # of shells in Aux-J                     ...    130
   Maximum angular momentum in Aux-J        ...      4
Auxiliary J/K fitting basis                 ... NOT available
Auxiliary Correlation fitting basis         ... NOT available
Auxiliary 'external' fitting basis          ... NOT available
Integral threshold                          ...     2.500000e-11
Primitive cut-off                           ...     2.500000e-12
Primitive pair pre-selection threshold      ...     2.500000e-12

Calculating pre-screening integrals         ... done (  0.1 sec) Dimension = 59
Organizing shell pair data                  ... done (  0.0 sec)
Shell pair information
Total number of shell pairs                 ...      1770
Shell pairs after pre-screening             ...      1650
Total number of primitive shell pairs       ...      6322
Primitive shell pairs kept                  ...      4408
          la=0 lb=0:    653 shell pairs
          la=1 lb=0:    518 shell pairs
          la=1 lb=1:    104 shell pairs
          la=2 lb=0:    251 shell pairs
          la=2 lb=1:     96 shell pairs
          la=2 lb=2:     28 shell pairs

Calculating one electron integrals          ... done (  0.0 sec)
Calculating RI/J V-Matrix + Cholesky decomp.... done (  0.0 sec)
Calculating Nuclear repulsion               ... done (  0.0 sec) ENN=    296.497162931094 Eh

SHARK setup successfully completed in   0.3 seconds

Maximum memory used throughout the entire GTOINT-calculation: 14.4 MB
-------------------------------------------------------------------------------
                                 ORCA SCF
-------------------------------------------------------------------------------

------------
SCF SETTINGS
------------
Hamiltonian:
 Density Functional     Method          .... DFT(GTOs)
 Exchange Functional    Exchange        .... PBE
   PBE kappa parameter   XKappa         ....  1.024500
   PBE mue parameter    XMuePBE         ....  0.123457
 Correlation Functional Correlation     .... PBE
   PBE beta parameter  CBetaPBE         ....  0.030000
 LDA part of GGA corr.  LDAOpt          .... PW91-LDA
 Gradients option       PostSCFGGA      .... off
 Hybrid DFT is turned on
   Fraction HF Exchange ScalHFX         ....  0.420000
   Scaling of DF-GGA-X  ScalDFX         ....  0.580000
   Scaling of DF-GGA-C  ScalDFC         ....  1.000000
   Scaling of DF-LDA-C  ScalLDAC        ....  1.000000
   Perturbative correction              ....  0.000000
   Density functional embedding theory  .... OFF
 RI-approximation to the Coulomb term is turned on
   Number of AuxJ basis functions       .... 398
   RIJ-ON(X) (HFX calculated with O(N)) .... on
   Number of AuxJ basis functions       .... 398
   RIJ-COSX (HFX calculated with COS-X)).... on


General Settings:
 Integral files         IntName         .... OPT_F
 Hartree-Fock type      HFTyp           .... RHF
 Total Charge           Charge          ....    0
 Multiplicity           Mult            ....    1
 Number of Electrons    NEL             ....   52
 Basis Dimension        Dim             ....  115
 Nuclear Repulsion      ENuc            ....    296.4971629311 Eh

Convergence Acceleration:
 DIIS                   CNVDIIS         .... on
   Start iteration      DIISMaxIt       ....    12
   Startup error        DIISStart       ....  0.200000
   # of expansion vecs  DIISMaxEq       ....     5
   Bias factor          DIISBfac        ....   1.050
   Max. coefficient     DIISMaxC        ....  10.000
 Trust-Rad. Augm. Hess. CNVTRAH         .... auto
   Auto Start mean grad. ratio tolernc. ....  1.125000
   Auto Start start iteration           ....    20
   Auto Start num. interpolation iter.  ....    10
   Max. Number of Micro iterations      ....    16
   Max. Number of Macro iterations      .... Maxiter - #DIIS iter
   Number of Davidson start vectors     ....     2
   Converg. threshold I  (grad. norm)   ....   1.000e-05
   Converg. threshold II (energy diff.) ....   1.000e-08
   Grad. Scal. Fac. for Micro threshold ....   0.100
   Minimum threshold for Micro iter.    ....   0.010
   NR start threshold (gradient norm)   ....   0.001
   Initial trust radius                 ....   0.400
   Minimum AH scaling param. (alpha)    ....   1.000
   Maximum AH scaling param. (alpha)    .... 1000.000
   Orbital update algorithm             .... Taylor
   White noise on init. David. guess    .... on
   Maximum white noise                  ....   0.010
   Quad. conv. algorithm                .... NR
   COSX micro iterations for RIJONX calc.... off
 SOSCF                  CNVSOSCF        .... on
   Start iteration      SOSCFMaxIt      ....   150
   Startup grad/error   SOSCFStart      ....  0.003300
 Level Shifting         CNVShift        .... on
   Level shift para.    LevelShift      ....    0.2500
   Turn off err/grad.   ShiftErr        ....    0.0010
 Zerner damping         CNVZerner       .... off
 Static damping         CNVDamp         .... on
   Fraction old density DampFac         ....    0.7000
   Max. Damping (<1)    DampMax         ....    0.9800
   Min. Damping (>=0)   DampMin         ....    0.0000
   Turn off err/grad.   DampErr         ....    0.1000
 Fernandez-Rico         CNVRico         .... off

SCF Procedure:
 Maximum # iterations   MaxIter         ....   125
 SCF integral mode      SCFMode         .... Direct
   Integral package                     .... SHARK and LIBINT hybrid scheme
 Reset frequency        DirectResetFreq ....    20
 Integral Threshold     Thresh          ....  2.500e-11 Eh
 Primitive CutOff       TCut            ....  2.500e-12 Eh

Convergence Tolerance:
 Convergence Check Mode ConvCheckMode   .... Total+1el-Energy
 Convergence forced     ConvForced      .... 0
 Energy Change          TolE            ....  1.000e-08 Eh
 1-El. energy change                    ....  1.000e-05 Eh
 Orbital Gradient       TolG            ....  1.000e-05
 Orbital Rotation angle TolX            ....  1.000e-05
 DIIS Error             TolErr          ....  5.000e-07


Diagonalization of the overlap matrix:
Smallest eigenvalue                        ... 3.907e-03
Time for diagonalization                   ...    0.011 sec
Threshold for overlap eigenvalues          ... 1.000e-08
Number of eigenvalues below threshold      ... 0
Time for construction of square roots      ...    0.001 sec
Total time needed                          ...    0.012 sec

--------------------------------
INITIAL GUESS: MINIMAL BASIS EHT
--------------------------------
The minimal basis has 40 functions
EHT matrix was diagonalized
Basis set overlap was calculated now projecting the orbitals
Using GuessMode=FMatrix for the initial guess
C*T matrix was formed
Effective Fockian was calculated
Effective Fockian was diagonalized
Initial density was built
                      ------------------
                      INITIAL GUESS DONE
                      ------------------
-------------------
DFT GRID GENERATION
-------------------

General Integration Accuracy     IntAcc      ... 4.159
Radial Grid Type                 RadialGrid  ... OptM3 with GC (2021)
Angular Grid (max. ang.)         AngularGrid ... 3 (Lebedev-194)
Angular grid pruning method      GridPruning ... 4 (adaptive)
Weight generation scheme         WeightScheme... Becke
Basis function cutoff            BFCut       ... 1.0000e-11
Integration weight cutoff        WCut        ... 1.0000e-14
Angular grids for H and He will be reduced by one unit
Partially contracted basis set               ... off
Rotationally invariant grid construction     ... off

Total number of grid points                  ...    30104
Total number of batches                      ...      474
Average number of points per batch           ...       63
Average number of grid points per atom       ...     2509
Time for grid setup =    0.561 sec

--------------------
COSX GRID GENERATION
--------------------

GRIDX 1
-------
General Integration Accuracy     IntAcc      ... 3.816
Radial Grid Type                 RadialGrid  ... OptM3 with GC (2021)
Angular Grid (max. ang.)         AngularGrid ... 1 (Lebedev-50)
Angular grid pruning method      GridPruning ... 4 (adaptive)
Weight generation scheme         WeightScheme... Becke
Basis function cutoff            BFCut       ... 1.0000e-11
Integration weight cutoff        WCut        ... 1.0000e-14
Angular grids for H and He will be reduced by one unit
Partially contracted basis set               ... on
Rotationally invariant grid construction     ... off

Total number of grid points                  ...     7450
Total number of batches                      ...      124
Average number of points per batch           ...       60
Average number of grid points per atom       ...      621
UseSFitting                                  ... on

GRIDX 2
-------
General Integration Accuracy     IntAcc      ... 4.020
Radial Grid Type                 RadialGrid  ... OptM3 with GC (2021)
Angular Grid (max. ang.)         AngularGrid ... 2 (Lebedev-110)
Angular grid pruning method      GridPruning ... 4 (adaptive)
Weight generation scheme         WeightScheme... Becke
Basis function cutoff            BFCut       ... 1.0000e-11
Integration weight cutoff        WCut        ... 1.0000e-14
Angular grids for H and He will be reduced by one unit
Partially contracted basis set               ... on
Rotationally invariant grid construction     ... off

Total number of grid points                  ...    16579
Total number of batches                      ...      265
Average number of points per batch           ...       62
Average number of grid points per atom       ...     1382
UseSFitting                                  ... on

GRIDX 3
-------
General Integration Accuracy     IntAcc      ... 4.338
Radial Grid Type                 RadialGrid  ... OptM3 with GC (2021)
Angular Grid (max. ang.)         AngularGrid ... 3 (Lebedev-194)
Angular grid pruning method      GridPruning ... 4 (adaptive)
Weight generation scheme         WeightScheme... Becke
Basis function cutoff            BFCut       ... 1.0000e-11
Integration weight cutoff        WCut        ... 1.0000e-14
Angular grids for H and He will be reduced by one unit
Partially contracted basis set               ... on
Rotationally invariant grid construction     ... off

Total number of grid points                  ...    36519
Total number of batches                      ...      577
Average number of points per batch           ...       63
Average number of grid points per atom       ...     3043
UseSFitting                                  ... on

Time for X-Grid setup             =    1.514 sec

--------------
SCF ITERATIONS
--------------
ITER       Energy         Delta-E        Max-DP      RMS-DP      [F,P]     Damp
               ***  Starting incremental Fock matrix formation  ***
  0   -358.4460127696   0.000000000000 0.20175789  0.01007998  0.5553948 0.7000
  1   -359.0349300976  -0.588917328048 0.11875985  0.00497427  0.2796504 0.7000
                               ***Turning on DIIS***
  2   -359.2810693764  -0.246139278762 0.05774311  0.00257659  0.1972377 0.7000
  3   -359.4634335678  -0.182364191399 0.03986621  0.00192153  0.1382942 0.7000
  4   -359.5961402095  -0.132706641771 0.08114978  0.00446450  0.0967455 0.0000
  5   -359.9102402112  -0.314100001668 0.01076422  0.00036165  0.0076162 0.0000
  6   -359.9105274593  -0.000287248104 0.00282213  0.00012508  0.0048274 0.0000
                      *** Initiating the SOSCF procedure ***
                           *** Shutting down DIIS ***
                      *** Re-Reading the Fockian *** 
                      *** Removing any level shift *** 
ITER      Energy       Delta-E        Grad      Rot      Max-DP    RMS-DP
  7   -359.91060636  -0.0000789031  0.001276  0.001276  0.002429  0.000076
               *** Restarting incremental Fock matrix formation ***
  8   -359.91057536   0.0000310032  0.000380  0.000973  0.001088  0.000048
  9   -359.91057852  -0.0000031645  0.000237  0.001004  0.000474  0.000028
 10   -359.91057851   0.0000000146  0.000268  0.000468  0.000228  0.000012
 11   -359.91057906  -0.0000005499  0.000023  0.000042  0.000088  0.000004
 12   -359.91057906   0.0000000003  0.000020  0.000030  0.000044  0.000002
                  ***Gradient check signals convergence***
              ***Rediagonalizing the Fockian in SOSCF/NRSCF***

               *****************************************************
               *                     SUCCESS                       *
               *           SCF CONVERGED AFTER  13 CYCLES          *
               *****************************************************

Old exchange energy                            =    -19.165163205 Eh
New exchange energy                            =    -19.165153643 Eh
Exchange energy change after final integration =      0.000009561 Eh
Total energy after final integration           =   -359.910569513 Eh
Final COS-X integration done in                =     7.613 sec

----------------
TOTAL SCF ENERGY
----------------

Total Energy       :         -359.91056951 Eh           -9793.66450 eV

Components:
Nuclear Repulsion  :          296.49716293 Eh            8068.09798 eV
Electronic Energy  :         -656.40773244 Eh          -17861.76247 eV
One Electron Energy:        -1077.50475058 Eh          -29320.39488 eV
Two Electron Energy:          421.09701814 Eh           11458.63241 eV
Max COSX asymmetry :            0.00001339 Eh               0.00036 eV

Virial components:
Potential Energy   :         -717.35801110 Eh          -19520.30388 eV
Kinetic Energy     :          357.44744159 Eh            9726.63938 eV
Virial Ratio       :            2.00689088


DFT components:
N(Alpha)           :       26.000020724492 electrons
N(Beta)            :       26.000020724492 electrons
N(Total)           :       52.000041448983 electrons
E(X)               :      -25.512161022924 Eh       
E(C)               :       -2.317481931198 Eh       
E(XC)              :      -27.829642954121 Eh       
DFET-embed. en.    :        0.000000000000 Eh       

---------------
SCF CONVERGENCE
---------------

  Last Energy change         ...   -1.5842e-08  Tolerance :   1.0000e-08
  Last MAX-Density change    ...    1.1102e-15  Tolerance :   1.0000e-07
  Last RMS-Density change    ...    4.9271e-17  Tolerance :   5.0000e-09
  Last Orbital Gradient      ...    2.2775e-06  Tolerance :   1.0000e-05
  Last Orbital Rotation      ...    5.9204e-06  Tolerance :   1.0000e-05

             **** THE GBW FILE WAS UPDATED (OPT_F.gbw) ****
             **** DENSITY OPT_F.scfp WAS UPDATED ****
             **** ENERGY FILE WAS UPDATED (OPT_F.en.tmp) ****
             **** THE GBW FILE WAS UPDATED (OPT_F.gbw) ****
             **** DENSITY OPT_F.scfp WAS UPDATED ****
----------------
ORBITAL ENERGIES
----------------

  NO   OCC          E(Eh)            E(eV) 
   0   2.0000     -19.480078      -530.0799 
   1   2.0000     -19.480042      -530.0789 
   2   2.0000     -14.707115      -400.2010 
   3   2.0000     -10.572173      -287.6835 
   4   2.0000     -10.572149      -287.6828 
   5   2.0000     -10.478676      -285.1393 
   6   2.0000     -10.478490      -285.1342 
   7   2.0000      -1.193113       -32.4663 
   8   2.0000      -1.154256       -31.4089 
   9   2.0000      -1.074299       -29.2332 
  10   2.0000      -0.916481       -24.9387 
  11   2.0000      -0.783656       -21.3244 
  12   2.0000      -0.712274       -19.3820 
  13   2.0000      -0.710185       -19.3251 
  14   2.0000      -0.588243       -16.0069 
  15   2.0000      -0.562587       -15.3088 
  16   2.0000      -0.527264       -14.3476 
  17   2.0000      -0.518441       -14.1075 
  18   2.0000      -0.493782       -13.4365 
  19   2.0000      -0.485086       -13.1999 
  20   2.0000      -0.474296       -12.9063 
  21   2.0000      -0.464952       -12.6520 
  22   2.0000      -0.403832       -10.9888 
  23   2.0000      -0.342798        -9.3280 
  24   2.0000      -0.341821        -9.3014 
  25   2.0000      -0.317308        -8.6344 
  26   0.0000       0.010874         0.2959 
  27   0.0000       0.048068         1.3080 
  28   0.0000       0.105410         2.8684 
  29   0.0000       0.125522         3.4156 
  30   0.0000       0.172915         4.7053 
  31   0.0000       0.182873         4.9762 
  32   0.0000       0.193707         5.2710 
  33   0.0000       0.212502         5.7825 
  34   0.0000       0.261964         7.1284 
  35   0.0000       0.290639         7.9087 
  36   0.0000       0.302700         8.2369 
  37   0.0000       0.360796         9.8178 
  38   0.0000       0.400966        10.9109 
  39   0.0000       0.476801        12.9744 
  40   0.0000       0.491988        13.3877 
  41   0.0000       0.500181        13.6106 
  42   0.0000       0.534312        14.5394 
  43   0.0000       0.547042        14.8858 
  44   0.0000       0.575850        15.6697 
  45   0.0000       0.588276        16.0078 
  46   0.0000       0.598926        16.2976 
  47   0.0000       0.607080        16.5195 
  48   0.0000       0.673857        18.3366 
  49   0.0000       0.705359        19.1938 
  50   0.0000       0.734129        19.9767 
  51   0.0000       0.734735        19.9931 
  52   0.0000       0.773828        21.0569 
  53   0.0000       0.845845        23.0166 
  54   0.0000       0.895636        24.3715 
  55   0.0000       0.906837        24.6763 
  56   0.0000       0.927316        25.2335 
  57   0.0000       0.946317        25.7506 
  58   0.0000       0.976462        26.5709 
  59   0.0000       0.986459        26.8429 
  60   0.0000       1.005439        27.3594 
  61   0.0000       1.018329        27.7101 
  62   0.0000       1.118654        30.4401 
  63   0.0000       1.144926        31.1550 
  64   0.0000       1.162851        31.6428 
  65   0.0000       1.188933        32.3525 
  66   0.0000       1.195459        32.5301 
  67   0.0000       1.285260        34.9737 
  68   0.0000       1.403455        38.1899 
  69   0.0000       1.409879        38.3648 
  70   0.0000       1.415679        38.5226 
  71   0.0000       1.440705        39.2036 
  72   0.0000       1.608640        43.7733 
  73   0.0000       1.610659        43.8283 
  74   0.0000       1.641735        44.6739 
  75   0.0000       1.732845        47.1531 
  76   0.0000       1.775799        48.3219 
  77   0.0000       1.821517        49.5660 
  78   0.0000       1.828192        49.7476 
  79   0.0000       1.832257        49.8582 
  80   0.0000       1.871766        50.9333 
  81   0.0000       1.872289        50.9476 
  82   0.0000       1.968160        53.5564 
  83   0.0000       1.974975        53.7418 
  84   0.0000       1.989828        54.1460 
  85   0.0000       2.024473        55.0887 
  86   0.0000       2.074456        56.4488 
  87   0.0000       2.076611        56.5075 
  88   0.0000       2.116045        57.5805 
  89   0.0000       2.152737        58.5789 
  90   0.0000       2.202834        59.9422 
  91   0.0000       2.248124        61.1746 
  92   0.0000       2.300309        62.5946 
  93   0.0000       2.361625        64.2631 
  94   0.0000       2.372618        64.5622 
  95   0.0000       2.471701        67.2584 
  96   0.0000       2.515693        68.4555 
  97   0.0000       2.568382        69.8892 
  98   0.0000       2.633303        71.6558 
  99   0.0000       2.678427        72.8837 
 100   0.0000       2.702896        73.5495 
 101   0.0000       2.748271        74.7843 
 102   0.0000       2.807462        76.3949 
 103   0.0000       2.902892        78.9917 
 104   0.0000       3.001665        81.6795 
 105   0.0000       3.004358        81.7527 
 106   0.0000       3.253472        88.5315 
 107   0.0000       3.306555        89.9759 
 108   0.0000      13.579265       369.5106 
 109   0.0000      13.846443       376.7809 
 110   0.0000      14.061404       382.6302 
 111   0.0000      14.154504       385.1636 
 112   0.0000      19.341414       526.3066 
 113   0.0000      25.704889       699.4656 
 114   0.0000      25.768300       701.1911 

                    ********************************
                    * MULLIKEN POPULATION ANALYSIS *
                    ********************************

-----------------------
MULLIKEN ATOMIC CHARGES
-----------------------
   0 C :   -0.574209
   1 C :   -0.573962
   2 C :    0.511653
   3 C :    0.511694
   4 N :   -0.621466
   5 O :   -0.386951
   6 O :   -0.386875
   7 H :    0.278878
   8 H :    0.278854
   9 H :    0.278834
  10 H :    0.278759
  11 H :    0.404792
Sum of atomic charges:    0.0000000

--------------------------------
MULLIKEN REDUCED ORBITAL CHARGES
--------------------------------
  0 C s       :     3.370053  s :     3.370053
      pz      :     1.072337  p :     3.164277
      px      :     1.073995
      py      :     1.017945
      dz2     :     0.004172  d :     0.039879
      dxz     :     0.009835
      dyz     :     0.010941
      dx2y2   :     0.011438
      dxy     :     0.003493
  1 C s       :     3.369974  s :     3.369974
      pz      :     1.119981  p :     3.164111
      px      :     1.038190
      py      :     1.005941
      dz2     :     0.010816  d :     0.039876
      dxz     :     0.008383
      dyz     :     0.003536
      dx2y2   :     0.007196
      dxy     :     0.009946
  2 C s       :     2.961148  s :     2.961148
      pz      :     0.758483  p :     2.401839
      px      :     0.788879
      py      :     0.854476
      dz2     :     0.026744  d :     0.125359
      dxz     :     0.023306
      dyz     :     0.018190
      dx2y2   :     0.024711
      dxy     :     0.032407
  3 C s       :     2.961124  s :     2.961124
      pz      :     0.794359  p :     2.401823
      px      :     0.762418
      py      :     0.845047
      dz2     :     0.022743  d :     0.125359
      dxz     :     0.020411
      dyz     :     0.027748
      dx2y2   :     0.027539
      dxy     :     0.026918
  4 N s       :     3.550196  s :     3.550196
      pz      :     1.409679  p :     4.035508
      px      :     1.344994
      py      :     1.280834
      dz2     :     0.005995  d :     0.035763
      dxz     :     0.005387
      dyz     :     0.007402
      dx2y2   :     0.008952
      dxy     :     0.008027
  5 O s       :     3.761119  s :     3.761119
      pz      :     1.509577  p :     4.595770
      px      :     1.396099
      py      :     1.690095
      dz2     :     0.005586  d :     0.030061
      dxz     :     0.007160
      dyz     :     0.003890
      dx2y2   :     0.007619
      dxy     :     0.005806
  6 O s       :     3.761142  s :     3.761142
      pz      :     1.392005  p :     4.595673
      px      :     1.483039
      py      :     1.720629
      dz2     :     0.009366  d :     0.030060
      dxz     :     0.007790
      dyz     :     0.004050
      dx2y2   :     0.004272
      dxy     :     0.004582
  7 H s       :     0.721122  s :     0.721122
  8 H s       :     0.721146  s :     0.721146
  9 H s       :     0.721166  s :     0.721166
 10 H s       :     0.721241  s :     0.721241
 11 H s       :     0.595208  s :     0.595208


                     *******************************
                     * LOEWDIN POPULATION ANALYSIS *
                     *******************************

----------------------
LOEWDIN ATOMIC CHARGES
----------------------
   0 C :   -0.262443
   1 C :   -0.262400
   2 C :    0.103857
   3 C :    0.103831
   4 N :   -0.155076
   5 O :   -0.240039
   6 O :   -0.239988
   7 H :    0.163936
   8 H :    0.163956
   9 H :    0.163928
  10 H :    0.163926
  11 H :    0.296511

-------------------------------
LOEWDIN REDUCED ORBITAL CHARGES
-------------------------------
  0 C s       :     2.925633  s :     2.925633
      pz      :     1.088050  p :     3.254714
      px      :     1.089865
      py      :     1.076798
      dz2     :     0.008148  d :     0.082096
      dxz     :     0.020128
      dyz     :     0.022571
      dx2y2   :     0.024579
      dxy     :     0.006670
  1 C s       :     2.925617  s :     2.925617
      pz      :     1.104980  p :     3.254688
      px      :     1.077226
      py      :     1.072482
      dz2     :     0.021064  d :     0.082095
      dxz     :     0.017271
      dyz     :     0.006668
      dx2y2   :     0.016544
      dxy     :     0.020549
  2 C s       :     2.817865  s :     2.817865
      pz      :     0.868441  p :     2.793238
      px      :     0.926423
      py      :     0.998374
      dz2     :     0.058152  d :     0.285040
      dxz     :     0.057470
      dyz     :     0.039823
      dx2y2   :     0.055228
      dxy     :     0.074367
  3 C s       :     2.817863  s :     2.817863
      pz      :     0.899836  p :     2.793258
      px      :     0.903193
      py      :     0.990229
      dz2     :     0.046832  d :     0.285048
      dxz     :     0.049458
      dyz     :     0.063873
      dx2y2   :     0.063573
      dxy     :     0.061313
  4 N s       :     3.092245  s :     3.092245
      pz      :     1.384284  p :     3.974035
      px      :     1.337889
      py      :     1.251862
      dz2     :     0.013855  d :     0.088796
      dxz     :     0.015096
      dyz     :     0.017790
      dx2y2   :     0.020375
      dxy     :     0.021680
  5 O s       :     3.521503  s :     3.521503
      pz      :     1.518375  p :     4.662217
      px      :     1.445191
      py      :     1.698651
      dz2     :     0.008706  d :     0.056319
      dxz     :     0.014994
      dyz     :     0.006650
      dx2y2   :     0.012477
      dxy     :     0.013492
  6 O s       :     3.521502  s :     3.521502
      pz      :     1.432303  p :     4.662167
      px      :     1.508842
      py      :     1.721022
      dz2     :     0.012852  d :     0.056319
      dxz     :     0.017622
      dyz     :     0.009201
      dx2y2   :     0.008013
      dxy     :     0.008631
  7 H s       :     0.836064  s :     0.836064
  8 H s       :     0.836044  s :     0.836044
  9 H s       :     0.836072  s :     0.836072
 10 H s       :     0.836074  s :     0.836074
 11 H s       :     0.703489  s :     0.703489


                      *****************************
                      * MAYER POPULATION ANALYSIS *
                      *****************************

  NA   - Mulliken gross atomic population
  ZA   - Total nuclear charge
  QA   - Mulliken gross atomic charge
  VA   - Mayer's total valence
  BVA  - Mayer's bonded valence
  FA   - Mayer's free valence

  ATOM       NA         ZA         QA         VA         BVA        FA
  0 C      6.5742     6.0000    -0.5742     3.6135     3.6135    -0.0000
  1 C      6.5740     6.0000    -0.5740     3.6136     3.6136     0.0000
  2 C      5.4883     6.0000     0.5117     4.0593     4.0593     0.0000
  3 C      5.4883     6.0000     0.5117     4.0593     4.0593     0.0000
  4 N      7.6215     7.0000    -0.6215     3.0764     3.0764     0.0000
  5 O      8.3870     8.0000    -0.3870     2.2184     2.2184    -0.0000
  6 O      8.3869     8.0000    -0.3869     2.2186     2.2186     0.0000
  7 H      0.7211     1.0000     0.2789     0.8947     0.8947    -0.0000
  8 H      0.7211     1.0000     0.2789     0.8947     0.8947     0.0000
  9 H      0.7212     1.0000     0.2788     0.8947     0.8947     0.0000
 10 H      0.7212     1.0000     0.2788     0.8947     0.8947     0.0000
 11 H      0.5952     1.0000     0.4048     0.8272     0.8272     0.0000

  Mayer bond orders larger than 0.100000
B(  0-C ,  1-C ) :   0.9193 B(  0-C ,  3-C ) :   0.9235 B(  0-C ,  7-H ) :   0.9029 
B(  0-C ,  8-H ) :   0.9028 B(  1-C ,  2-C ) :   0.9235 B(  1-C ,  9-H ) :   0.9029 
B(  1-C , 10-H ) :   0.9029 B(  2-C ,  4-N ) :   1.0850 B(  2-C ,  5-O ) :   2.0892 
B(  3-C ,  4-N ) :   1.0848 B(  3-C ,  6-O ) :   2.0893 B(  4-N , 11-H ) :   0.7889 


-------
TIMINGS
-------

Total SCF time: 0 days 0 hours 0 min 57 sec 

Total time                  ....      57.205 sec
Sum of individual times     ....      56.912 sec  ( 99.5%)

Fock matrix formation       ....      54.756 sec  ( 95.7%)
  Split-RI-J                ....       4.664 sec  (  8.5% of F)
  Chain of spheres X        ....      42.851 sec  ( 78.3% of F)
  XC integration            ....       7.194 sec  ( 13.1% of F)
    Basis function eval.    ....       3.036 sec  ( 42.2% of XC)
    Density eval.           ....       1.533 sec  ( 21.3% of XC)
    XC-Functional eval.     ....       0.853 sec  ( 11.9% of XC)
    XC-Potential eval.      ....       1.563 sec  ( 21.7% of XC)
Diagonalization             ....       0.020 sec  (  0.0%)
Density matrix formation    ....       0.009 sec  (  0.0%)
Population analysis         ....       0.003 sec  (  0.0%)
Initial guess               ....       0.016 sec  (  0.0%)
Orbital Transformation      ....       0.000 sec  (  0.0%)
Orbital Orthonormalization  ....       0.000 sec  (  0.0%)
DIIS solution               ....       0.022 sec  (  0.0%)
SOSCF solution              ....       0.012 sec  (  0.0%)
Grid generation             ....       2.074 sec  (  3.6%)

Maximum memory used throughout the entire SCF-calculation: 59.0 MB


-------------------------------------------------------------------------------
                          DFT DISPERSION CORRECTION                            
                                                                               
                              DFTD3 V3.1  Rev 1                                
                          USING Becke-Johnson damping                          
-------------------------------------------------------------------------------
The PBEh-3c composite method is recognized
Using three-body term ABC
Active option DFTDOPT                   ...         4   

molecular C6(AA) [au] = 1455.458275 


            DFT-D V3
 parameters
 s6 scaling factor         :     1.0000 
 a1 scaling factor         :     0.4860 
 s8 scaling factor         :     0.0000 
 a2 scaling factor         :     4.5000 
 Damping factor alpha9(ATM):    16.0000 
 ad hoc parameters k1-k3   :    16.0000     1.3333    -4.0000 

 Edisp/kcal,au: -3.528969065622  -0.005623769576 
 E6   /kcal   :  -3.540737497 
 E8   /kcal   :  -0.000000000 
 E6(ABC)      :   0.011768431 
 % E8         :   0.000000000 
 % E6(ABC)    :  -0.333480714 

-------------------------   ----------------
Dispersion correction           -0.005623770
-------------------------   ----------------

------------------   -----------------
gCP correction             0.023195575
------------------   -----------------

-------------------------   --------------------
FINAL SINGLE POINT ENERGY      -359.892997708221
-------------------------   --------------------

------------------------------------------------------------------------------
                         ORCA SCF GRADIENT CALCULATION
------------------------------------------------------------------------------

 ... reading COSX grid (gridx3)
Gradient of the Kohn-Sham DFT energy:
Kohn-Sham wavefunction type      ... RKS
Hartree-Fock exchange scaling    ...    0.420
Number of operators              ...    1
Number of atoms                  ...   12
Basis set dimensions             ...  115
Integral neglect threshold       ... 2.5e-11
Integral primitive cutoff        ... 2.5e-12
SHARK Integral package           ... ON

Nuc. rep. gradient       (SHARK) ... done (  0.0 sec)
HCore & Overlap gradient (SHARK) ... done (  0.1 sec)
RI-J gradient            (SHARK) ... done (  1.2 sec)
COSX-gradient                    ... done (  9.3 sec)
Exchange-correlation gradient    ... done
Dispersion correction            ... done
gCP correction                   ... done

------------------
CARTESIAN GRADIENT
------------------

   1   C   :   -0.010216987    0.011967016   -0.014211708
   2   C   :    0.015059306    0.013334940    0.006313484
   3   C   :   -0.076651223   -0.021554225   -0.054376551
   4   C   :    0.070120344   -0.011744381    0.065125582
   5   N   :   -0.001780440   -0.008802204    0.002764683
   6   O   :    0.017769095    0.010573787    0.009894108
   7   O   :   -0.013776421    0.008495987   -0.016278570
   8   H   :   -0.010081683   -0.000096555    0.012901088
   9   H   :    0.008534515   -0.010553875   -0.009124616
  10   H   :    0.007949629   -0.010683777   -0.009540262
  11   H   :   -0.010550969   -0.000011249    0.012467150
  12   H   :    0.003636188    0.019013985   -0.006066993

Difference to translation invariance:
           :    0.0000113548   -0.0000605514   -0.0001326048

Difference to rotation invariance:
           :   -0.0005924471   -0.0028588280   -0.0000133050

Norm of the cartesian gradient     ...    0.1486939984
RMS gradient                       ...    0.0247823331
MAX gradient                       ...    0.0766512227

-------
TIMINGS
-------

Total SCF gradient time            ...       13.708 sec

One electron gradient       ....       0.124 sec  (  0.9%)
RI-J Coulomb gradient       ....       1.157 sec  (  8.4%)
COSX gradient               ....       9.320 sec  ( 68.0%)
XC gradient                 ....       2.447 sec  ( 17.9%)

Maximum memory used throughout the entire SCFGRAD-calculation: 47.0 MB
------------------------------------------------------------------------------
                         ORCA GEOMETRY RELAXATION STEP
------------------------------------------------------------------------------

Reading the OPT-File                    .... done
Getting information on internals        .... done
Copying old internal coords+grads       .... done
Making the new internal coordinates     .... (new redundants).... done
Validating the new internal coordinates .... (new redundants).... done
Calculating the B-matrix                .... done
Calculating the G,G- and P matrices     .... done
Transforming gradient to internals      .... done
Projecting the internal gradient        .... done
Number of atoms                         ....  12
Number of internal coordinates          ....  62
Current Energy                          ....  -359.892997708 Eh
Current gradient norm                   ....     0.148693998 Eh/bohr
Maximum allowed component of the step   ....  0.300
Current trust radius                    ....  0.300
Evaluating the initial hessian          ....  (Almloef) done
Projecting the Hessian                  .... done
Forming the augmented Hessian           .... done
Diagonalizing the augmented Hessian     .... done
Last element of RFO vector              ....  0.976723678
Lowest eigenvalues of augmented Hessian:
 -0.019711378  0.012388641  0.020969044  0.023267028  0.026530604
Length of the computed step             ....  0.219613203
The final length of the internal step   ....  0.219613203
Converting the step to cartesian space:
 Initial RMS(Int)=    0.0278909047
Transforming coordinates:
 Iter   0:  RMS(Cart)=    0.0377883313 RMS(Int)=    1.1284910301
 Iter   1:  RMS(Cart)=    0.0008143512 RMS(Int)=    0.0004820317
 Iter   2:  RMS(Cart)=    0.0000186781 RMS(Int)=    0.0000126245
 Iter   3:  RMS(Cart)=    0.0000007171 RMS(Int)=    0.0000004095
 Iter   4:  RMS(Cart)=    0.0000000202 RMS(Int)=    0.0000000132
done
Storing new coordinates                 .... done

                                .--------------------.
          ----------------------|Geometry convergence|-------------------------
          Item                value                   Tolerance       Converged
          ---------------------------------------------------------------------
          RMS gradient        0.0124100582            0.0001000000      NO
          MAX gradient        0.0369798505            0.0003000000      NO
          RMS step            0.0278909047            0.0020000000      NO
          MAX step            0.0666974917            0.0040000000      NO
          ........................................................
          Max(Bonds)      0.0304      Max(Angles)    3.82
          Max(Dihed)        1.69      Max(Improp)    0.00
          ---------------------------------------------------------------------

The optimization has not yet converged - more geometry cycles are needed


    ---------------------------------------------------------------------------
                         Redundant Internal Coordinates
                            (Angstroem and degrees)

        Definition                    Value    dE/dq     Step     New-Value
    ----------------------------------------------------------------------------
     1. B(C   1,C   0)                1.5420 -0.009525  0.0083    1.5503   
     2. B(C   2,C   1)                1.4957 -0.007428  0.0079    1.5036   
     3. B(C   3,C   0)                1.4957 -0.007464  0.0080    1.5037   
     4. B(N   4,C   3)                1.3388 -0.036980  0.0304    1.3692   
     5. B(N   4,C   2)                1.3388 -0.036822  0.0303    1.3690   
     6. B(O   5,C   2)                1.2209  0.022859 -0.0114    1.2095   
     7. B(O   6,C   3)                1.2209  0.022864 -0.0114    1.2095   
     8. B(H   7,C   0)                1.1112  0.015007 -0.0225    1.0886   
     9. B(H   8,C   0)                1.1112  0.014963 -0.0224    1.0887   
    10. B(H   9,C   1)                1.1111  0.014979 -0.0225    1.0887   
    11. B(H  10,C   1)                1.1112  0.014944 -0.0224    1.0887   
    12. B(H  11,N   4)                1.0311  0.020288 -0.0256    1.0056   
    13. A(C   1,C   0,H   8)          111.46  0.000273    0.82    112.28   
    14. A(C   3,C   0,H   8)          110.10  0.006020   -0.72    109.38   
    15. A(C   3,C   0,H   7)          110.17  0.006161   -0.79    109.39   
    16. A(C   1,C   0,C   3)          102.39 -0.015352    1.75    104.14   
    17. A(C   1,C   0,H   7)          111.46  0.000355    0.78    112.24   
    18. A(H   7,C   0,H   8)          110.95  0.001688   -1.62    109.33   
    19. A(C   0,C   1,H   9)          111.46  0.000281    0.82    112.28   
    20. A(C   0,C   1,C   2)          102.39 -0.015471    1.77    104.16   
    21. A(H   9,C   1,H  10)          110.95  0.001685   -1.63    109.32   
    22. A(C   2,C   1,H   9)          110.17  0.006151   -0.76    109.41   
    23. A(C   2,C   1,H  10)          110.10  0.006072   -0.74    109.36   
    24. A(C   0,C   1,H  10)          111.46  0.000421    0.77    112.23   
    25. A(N   4,C   2,O   5)          122.79 -0.016205    2.01    124.80   
    26. A(C   1,C   2,O   5)          124.26 -0.012066    1.66    125.92   
    27. A(C   1,C   2,N   4)          112.95  0.028272   -3.67    109.28   
    28. A(N   4,C   3,O   6)          122.79 -0.016369    2.03    124.82   
    29. A(C   0,C   3,O   6)          124.26 -0.011879    1.63    125.89   
    30. A(C   0,C   3,N   4)          112.95  0.028249   -3.66    109.29   
    31. A(C   3,N   4,H  11)          125.34  0.012813   -1.91    123.44   
    32. A(C   2,N   4,H  11)          125.34  0.012885   -1.92    123.43   
    33. A(C   2,N   4,C   3)          109.32 -0.025698    3.82    113.14   
    34. D(C   2,C   1,C   0,H   8)    117.62 -0.001361    0.45    118.07   
    35. D(H  10,C   1,C   0,H   8)   -124.70 -0.002736    0.92   -123.79   
    36. D(H   9,C   1,C   0,C   3)   -117.82  0.001431   -0.54   -118.35   
    37. D(H  10,C   1,C   0,H   7)     -0.14 -0.000056   -0.01     -0.15   
    38. D(H   9,C   1,C   0,H   8)     -0.14 -0.000005   -0.03     -0.17   
    39. D(H   9,C   1,C   0,H   7)    124.43  0.002675   -0.95    123.47   
    40. D(H  10,C   1,C   0,C   3)    117.62 -0.001300    0.41    118.03   
    41. D(C   2,C   1,C   0,C   3)     -0.06  0.000076   -0.06     -0.12   
    42. D(C   2,C   1,C   0,H   7)   -117.82  0.001319   -0.48   -118.30   
    43. D(O   5,C   2,C   1,H  10)     61.38  0.005135   -1.54     59.85   
    44. D(O   5,C   2,C   1,H   9)    -61.31 -0.005187    1.52    -59.79   
    45. D(N   4,C   2,C   1,H  10)   -118.59  0.005084   -1.48   -120.07   
    46. D(O   5,C   2,C   1,C   0)   -179.98  0.000048   -0.03   -180.01   
    47. D(N   4,C   2,C   1,H   9)    118.72 -0.005239    1.58    120.30   
    48. D(N   4,C   2,C   1,C   0)      0.05 -0.000004    0.03      0.08   
    49. D(O   6,C   3,C   0,H   8)     61.38  0.005057   -1.37     60.02   
    50. D(O   6,C   3,C   0,H   7)    -61.31 -0.005242    1.69    -59.62   
    51. D(O   6,C   3,C   0,C   1)   -179.98 -0.000161    0.19   -179.79   
    52. D(N   4,C   3,C   0,H   8)   -118.59  0.005135   -1.48   -120.06   
    53. D(N   4,C   3,C   0,H   7)    118.72 -0.005163    1.57    120.30   
    54. D(N   4,C   3,C   0,C   1)      0.05 -0.000082    0.08      0.13   
    55. D(H  11,N   4,C   3,O   6)      0.01  0.000079   -0.11     -0.10   
    56. D(H  11,N   4,C   3,C   0)    179.98  0.000003   -0.00    179.98   
    57. D(C   2,N   4,C   3,O   6)   -179.99  0.000158   -0.18   -180.17   
    58. D(C   2,N   4,C   3,C   0)     -0.02  0.000082   -0.07     -0.09   
    59. D(H  11,N   4,C   2,O   5)      0.01 -0.000025    0.01      0.02   
    60. D(H  11,N   4,C   2,C   1)    179.98  0.000027   -0.04    179.93   
    61. D(C   3,N   4,C   2,O   5)   -179.99 -0.000104    0.08   -179.91   
    62. D(C   3,N   4,C   2,C   1)     -0.02 -0.000052    0.03      0.01   
    ----------------------------------------------------------------------------

         *************************************************************
         *                GEOMETRY OPTIMIZATION CYCLE   2            *
         *************************************************************
---------------------------------
CARTESIAN COORDINATES (ANGSTROEM)
---------------------------------
  C     -6.926204   -1.092740   -5.454455
  C     -5.726342   -1.010986   -4.476147
  C     -5.178540    0.374207   -4.681118
  C     -6.949017    0.254947   -6.120991
  N     -5.927595    1.021218   -5.626915
  O     -4.228311    0.853574   -4.106531
  O     -7.740269    0.617275   -6.960926
  H     -7.869912   -1.255158   -4.936584
  H     -6.791693   -1.866115   -6.208854
  H     -4.954272   -1.742746   -4.707822
  H     -6.032705   -1.127431   -3.437904
  H     -5.746650    1.963665   -5.927263

----------------------------
CARTESIAN COORDINATES (A.U.)
----------------------------
  NO LB      ZA    FRAG     MASS         X           Y           Z
   0 C     6.0000    0    12.011  -13.088629   -2.064980  -10.307426
   1 C     6.0000    0    12.011  -10.821218   -1.910486   -8.458692
   2 C     6.0000    0    12.011   -9.786022    0.707148   -8.846031
   3 C     6.0000    0    12.011  -13.131739    0.481780  -11.566996
   4 N     7.0000    0    14.007  -11.201531    1.929822  -10.633328
   5 O     8.0000    0    15.999   -7.990349    1.613021   -7.760220
   6 O     8.0000    0    15.999  -14.626988    1.166481  -13.154244
   7 H     1.0000    0     1.008  -14.871979   -2.371905   -9.328792
   8 H     1.0000    0     1.008  -12.834440   -3.526447  -11.733035
   9 H     1.0000    0     1.008   -9.362218   -3.293312   -8.896495
  10 H     1.0000    0     1.008  -11.400160   -2.130536   -6.496696
  11 H     1.0000    0     1.008  -10.859595    3.710788  -11.200903

--------------------------------
INTERNAL COORDINATES (ANGSTROEM)
--------------------------------
 C      0   0   0     0.000000000000     0.00000000     0.00000000
 C      1   0   0     1.550302730801     0.00000000     0.00000000
 C      2   1   0     1.503614895397   104.15392559     0.00000000
 C      1   2   3     1.503679295486   104.13459423   359.87766010
 N      3   2   1     1.369028607109   109.28232254     0.07661793
 O      3   2   1     1.209494869900   125.91535359   179.98892322
 O      4   1   2     1.209484433014   125.89149270   180.21354221
 H      1   2   3     1.088648146853   112.24643681   241.69611927
 H      1   2   3     1.088724436760   112.27803341   118.07184571
 H      2   1   3     1.088686272278   112.28016551   241.76037208
 H      2   1   3     1.088745720969   112.23140099   118.15768419
 H      5   3   2     1.005562118636   123.42434238   179.93543385

---------------------------
INTERNAL COORDINATES (A.U.)
---------------------------
 C      0   0   0     0.000000000000     0.00000000     0.00000000
 C      1   0   0     2.929647585884     0.00000000     0.00000000
 C      2   1   0     2.841420363184   104.15392559     0.00000000
 C      1   2   3     2.841542061717   104.13459423   359.87766010
 N      3   2   1     2.587089136939   109.28232254     0.07661793
 O      3   2   1     2.285614064494   125.91535359   179.98892322
 O      4   1   2     2.285594341638   125.89149270   180.21354221
 H      1   2   3     2.057246853752   112.24643681   241.69611927
 H      1   2   3     2.057391020783   112.27803341   118.07184571
 H      2   1   3     2.057318900365   112.28016551   241.76037208
 H      2   1   3     2.057431242111   112.23140099   118.15768419
 H      5   3   2     1.900237014868   123.42434238   179.93543385

------------------------------------------------------------------------------
                   ___                                                        
                  /   \      - P O W E R E D   B Y -                         
                 /     \                                                     
                 |  |  |   _    _      __       _____    __    __             
                 |  |  |  | |  | |    /  \     |  _  \  |  |  /  |          
                  \  \/   | |  | |   /    \    | | | |  |  | /  /          
                 / \  \   | |__| |  /  /\  \   | |_| |  |  |/  /          
                |  |  |   |  __  | /  /__\  \  |    /   |      \           
                |  |  |   | |  | | |   __   |  |    \   |  |\   \          
                \     /   | |  | | |  |  |  |  | |\  \  |  | \   \       
                 \___/    |_|  |_| |__|  |__|  |_| \__\ |__|  \__/        
                                                                              
                      - O R C A' S   B I G   F R I E N D -                    
                                      &                                       
                       - I N T E G R A L  F E E D E R -                       
                                                                              
 v1 FN, 2020, v2 2021                                                         
------------------------------------------------------------------------------


Reading SHARK input file OPT_F.SHARKINP.tmp ... ok
----------------------
SHARK INTEGRAL PACKAGE
----------------------

Number of atoms                             ...     12
Number of basis functions                   ...    115
Number of shells                            ...     59
Maximum angular momentum                    ...      2
Integral batch strategy                     ... SHARK/LIBINT Hybrid
RI-J (if used) integral strategy            ... SPLIT-RIJ (Revised 2003 algorithm where possible)
Printlevel                                  ...      1
Contraction scheme used                     ... SEGMENTED contraction
Coulomb Range Separation                    ... NOT USED
Exchange Range Separation                   ... NOT USED
Finite Nucleus Model                        ... NOT USED
Auxiliary Coulomb fitting basis             ... AVAILABLE
   # of basis functions in Aux-J            ...    398
   # of shells in Aux-J                     ...    130
   Maximum angular momentum in Aux-J        ...      4
Auxiliary J/K fitting basis                 ... NOT available
Auxiliary Correlation fitting basis         ... NOT available
Auxiliary 'external' fitting basis          ... NOT available
Integral threshold                          ...     2.500000e-11
Primitive cut-off                           ...     2.500000e-12
Primitive pair pre-selection threshold      ...     2.500000e-12

Calculating pre-screening integrals         ... done (  0.0 sec) Dimension = 59
Organizing shell pair data                  ... done (  0.0 sec)
Shell pair information
Total number of shell pairs                 ...      1770
Shell pairs after pre-screening             ...      1647
Total number of primitive shell pairs       ...      6322
Primitive shell pairs kept                  ...      4390
          la=0 lb=0:    651 shell pairs
          la=1 lb=0:    518 shell pairs
          la=1 lb=1:    104 shell pairs
          la=2 lb=0:    250 shell pairs
          la=2 lb=1:     96 shell pairs
          la=2 lb=2:     28 shell pairs

Calculating one electron integrals          ... done (  0.0 sec)
Calculating RI/J V-Matrix + Cholesky decomp.... done (  0.0 sec)
Calculating Nuclear repulsion               ... done (  0.0 sec) ENN=    294.639158284690 Eh

SHARK setup successfully completed in   0.2 seconds

Maximum memory used throughout the entire GTOINT-calculation: 14.3 MB

Diagonalization of the overlap matrix:
Smallest eigenvalue                        ... 4.146e-03
Time for diagonalization                   ...    0.002 sec
Threshold for overlap eigenvalues          ... 1.000e-08
Number of eigenvalues below threshold      ... 0
Time for construction of square roots      ...    0.001 sec
Total time needed                          ...    0.003 sec

-------------------
DFT GRID GENERATION
-------------------

General Integration Accuracy     IntAcc      ... 4.159
Radial Grid Type                 RadialGrid  ... OptM3 with GC (2021)
Angular Grid (max. ang.)         AngularGrid ... 3 (Lebedev-194)
Angular grid pruning method      GridPruning ... 4 (adaptive)
Weight generation scheme         WeightScheme... Becke
Basis function cutoff            BFCut       ... 1.0000e-11
Integration weight cutoff        WCut        ... 1.0000e-14
Angular grids for H and He will be reduced by one unit
Partially contracted basis set               ... off
Rotationally invariant grid construction     ... off

Total number of grid points                  ...    30119
Total number of batches                      ...      475
Average number of points per batch           ...       63
Average number of grid points per atom       ...     2510
Time for grid setup =    0.507 sec

--------------------
COSX GRID GENERATION
--------------------

GRIDX 1
-------
General Integration Accuracy     IntAcc      ... 3.816
Radial Grid Type                 RadialGrid  ... OptM3 with GC (2021)
Angular Grid (max. ang.)         AngularGrid ... 1 (Lebedev-50)
Angular grid pruning method      GridPruning ... 4 (adaptive)
Weight generation scheme         WeightScheme... Becke
Basis function cutoff            BFCut       ... 1.0000e-11
Integration weight cutoff        WCut        ... 1.0000e-14
Angular grids for H and He will be reduced by one unit
Partially contracted basis set               ... on
Rotationally invariant grid construction     ... off

Total number of grid points                  ...     7452
Total number of batches                      ...      124
Average number of points per batch           ...       60
Average number of grid points per atom       ...      621
UseSFitting                                  ... on

GRIDX 2
-------
General Integration Accuracy     IntAcc      ... 4.020
Radial Grid Type                 RadialGrid  ... OptM3 with GC (2021)
Angular Grid (max. ang.)         AngularGrid ... 2 (Lebedev-110)
Angular grid pruning method      GridPruning ... 4 (adaptive)
Weight generation scheme         WeightScheme... Becke
Basis function cutoff            BFCut       ... 1.0000e-11
Integration weight cutoff        WCut        ... 1.0000e-14
Angular grids for H and He will be reduced by one unit
Partially contracted basis set               ... on
Rotationally invariant grid construction     ... off

Total number of grid points                  ...    16580
Total number of batches                      ...      264
Average number of points per batch           ...       62
Average number of grid points per atom       ...     1382
UseSFitting                                  ... on

GRIDX 3
-------
General Integration Accuracy     IntAcc      ... 4.338
Radial Grid Type                 RadialGrid  ... OptM3 with GC (2021)
Angular Grid (max. ang.)         AngularGrid ... 3 (Lebedev-194)
Angular grid pruning method      GridPruning ... 4 (adaptive)
Weight generation scheme         WeightScheme... Becke
Basis function cutoff            BFCut       ... 1.0000e-11
Integration weight cutoff        WCut        ... 1.0000e-14
Angular grids for H and He will be reduced by one unit
Partially contracted basis set               ... on
Rotationally invariant grid construction     ... off

Total number of grid points                  ...    36533
Total number of batches                      ...      577
Average number of points per batch           ...       63
Average number of grid points per atom       ...     3044
UseSFitting                                  ... on

Time for X-Grid setup             =    1.226 sec

--------------
SCF ITERATIONS
--------------
ITER       Energy         Delta-E        Max-DP      RMS-DP      [F,P]     Damp
               ***  Starting incremental Fock matrix formation  ***
  0   -359.9198806959   0.000000000000 0.00590857  0.00025833  0.0134353 0.7000
                      *** Initiating the SOSCF procedure ***
                      *** Re-Reading the Fockian *** 
                      *** Removing any level shift *** 
ITER      Energy       Delta-E        Grad      Rot      Max-DP    RMS-DP
  1   -359.92070408  -0.0008233795  0.002160  0.002160  0.016474  0.000724
               *** Restarting incremental Fock matrix formation ***
  2   -359.92252843  -0.0018243523  0.002689  0.005596  0.006690  0.000295
  3   -359.92243708   0.0000913453  0.004053  0.003699  0.004322  0.000193
  4   -359.92267627  -0.0002391861  0.000325  0.000403  0.001211  0.000044
  5   -359.92267742  -0.0000011545  0.000300  0.000210  0.000590  0.000020
  6   -359.92267985  -0.0000024293  0.000018  0.000023  0.000034  0.000002
  7   -359.92267986  -0.0000000124  0.000008  0.000007  0.000011  0.000001
                  ***Gradient check signals convergence***
              ***Rediagonalizing the Fockian in SOSCF/NRSCF***

               *****************************************************
               *                     SUCCESS                       *
               *           SCF CONVERGED AFTER   8 CYCLES          *
               *****************************************************

Old exchange energy                            =    -19.169584964 Eh
New exchange energy                            =    -19.169566461 Eh
Exchange energy change after final integration =      0.000018503 Eh
Total energy after final integration           =   -359.922661361 Eh
Final COS-X integration done in                =     6.289 sec
Total Energy       :         -359.92266136 Eh           -9793.99353 eV
  Last Energy change         ...    5.4814e-10  Tolerance :   1.0000e-08
  Last MAX-Density change    ...    1.9984e-15  Tolerance :   1.0000e-07
             **** THE GBW FILE WAS UPDATED (OPT_F.gbw) ****
             **** DENSITY OPT_F.scfp WAS UPDATED ****
             **** ENERGY FILE WAS UPDATED (OPT_F.en.tmp) ****
             **** THE GBW FILE WAS UPDATED (OPT_F.gbw) ****
             **** DENSITY OPT_F.scfp WAS UPDATED ****
Total SCF time: 0 days 0 hours 0 min 39 sec 

Maximum memory used throughout the entire SCF-calculation: 59.1 MB


-------------------------------------------------------------------------------
                          DFT DISPERSION CORRECTION                            
                                                                               
                              DFTD3 V3.1  Rev 1                                
[...]
Electronic Energy  :         -654.02387392 Eh          -17796.89439 eV
One Electron Energy:        -1072.63482760 Eh          -29187.87754 eV
Two Electron Energy:          418.61095368 Eh           11390.98316 eV
Max COSX asymmetry :            0.00000840 Eh               0.00023 eV

Virial components:
Potential Energy   :         -717.37990092 Eh          -19520.89953 eV
Kinetic Energy     :          357.45526831 Eh            9726.85235 eV
Virial Ratio       :            2.00690818


DFT components:
N(Alpha)           :       26.000010373630 electrons
N(Beta)            :       26.000010373630 electrons
N(Total)           :       52.000020747260 electrons
E(X)               :      -25.515998614550 Eh       
E(C)               :       -2.316317809165 Eh       
E(XC)              :      -27.832316423715 Eh       
DFET-embed. en.    :        0.000000000000 Eh       

---------------
SCF CONVERGENCE
---------------

  Last Energy change         ...   -4.8680e-08  Tolerance :   1.0000e-08
  Last MAX-Density change    ...    2.1094e-15  Tolerance :   1.0000e-07
  Last RMS-Density change    ...    4.3425e-17  Tolerance :   5.0000e-09
  Last Orbital Gradient      ...    2.2320e-06  Tolerance :   1.0000e-05
  Last Orbital Rotation      ...    6.7806e-06  Tolerance :   1.0000e-05

             **** THE GBW FILE WAS UPDATED (OPT_F.gbw) ****
             **** DENSITY OPT_F.scfp WAS UPDATED ****
             **** ENERGY FILE WAS UPDATED (OPT_F.en.tmp) ****
             **** THE GBW FILE WAS UPDATED (OPT_F.gbw) ****
             **** DENSITY OPT_F.scfp WAS UPDATED ****
----------------
ORBITAL ENERGIES
----------------

  NO   OCC          E(Eh)            E(eV) 
   0   2.0000     -19.491757      -530.3977 
   1   2.0000     -19.491711      -530.3964 
   2   2.0000     -14.697204      -399.9313 
   3   2.0000     -10.577879      -287.8387 
   4   2.0000     -10.577821      -287.8371 
   5   2.0000     -10.472684      -284.9762 
   6   2.0000     -10.472472      -284.9704 
   7   2.0000      -1.192986       -32.4628 
   8   2.0000      -1.172760       -31.9124 
   9   2.0000      -1.067556       -29.0497 
  10   2.0000      -0.909048       -24.7364 
  11   2.0000      -0.790952       -21.5229 
  12   2.0000      -0.704332       -19.1659 
  13   2.0000      -0.698277       -19.0011 
  14   2.0000      -0.580187       -15.7877 
  15   2.0000      -0.561911       -15.2904 
  16   2.0000      -0.532334       -14.4855 
  17   2.0000      -0.516803       -14.0629 
  18   2.0000      -0.488314       -13.2877 
  19   2.0000      -0.488218       -13.2851 
  20   2.0000      -0.486236       -13.2311 
  21   2.0000      -0.476258       -12.9596 
  22   2.0000      -0.410395       -11.1674 
  23   2.0000      -0.353883        -9.6297 
  24   2.0000      -0.349117        -9.4999 
  25   2.0000      -0.322365        -8.7720 
  26   0.0000       0.010928         0.2974 
  27   0.0000       0.058067         1.5801 
  28   0.0000       0.121050         3.2939 
  29   0.0000       0.141994         3.8639 
  30   0.0000       0.174907         4.7594 
  31   0.0000       0.181560         4.9405 
  32   0.0000       0.204312         5.5596 
  33   0.0000       0.208895         5.6843 
  34   0.0000       0.269278         7.3274 
  35   0.0000       0.271434         7.3861 
  36   0.0000       0.309728         8.4281 
  37   0.0000       0.354160         9.6372 
  38   0.0000       0.379899        10.3376 
  39   0.0000       0.474290        12.9061 
  40   0.0000       0.487092        13.2545 
  41   0.0000       0.502604        13.6765 
  42   0.0000       0.535606        14.5746 
  43   0.0000       0.535773        14.5791 
  44   0.0000       0.579795        15.7770 
  45   0.0000       0.581955        15.8358 
  46   0.0000       0.582791        15.8585 
  47   0.0000       0.607924        16.5424 
  48   0.0000       0.687355        18.7039 
  49   0.0000       0.703844        19.1526 
  50   0.0000       0.735968        20.0267 
  51   0.0000       0.749906        20.4060 
  52   0.0000       0.770230        20.9590 
  53   0.0000       0.853062        23.2130 
  54   0.0000       0.883459        24.0402 
  55   0.0000       0.906677        24.6719 
  56   0.0000       0.936312        25.4783 
  57   0.0000       0.959759        26.1164 
  58   0.0000       0.981173        26.6991 
  59   0.0000       0.996174        27.1073 
  60   0.0000       1.021717        27.8023 
  61   0.0000       1.037003        28.2183 
  62   0.0000       1.118845        30.4453 
  63   0.0000       1.137374        30.9495 
  64   0.0000       1.152405        31.3585 
  65   0.0000       1.181626        32.1537 
  66   0.0000       1.194445        32.5025 
  67   0.0000       1.301740        35.4221 
  68   0.0000       1.356509        36.9125 
  69   0.0000       1.400439        38.1079 
  70   0.0000       1.414962        38.5031 
  71   0.0000       1.439014        39.1576 
  72   0.0000       1.594823        43.3973 
  73   0.0000       1.613233        43.8983 
  74   0.0000       1.661808        45.2201 
  75   0.0000       1.717628        46.7390 
  76   0.0000       1.758895        47.8620 
  77   0.0000       1.801775        49.0288 
  78   0.0000       1.814215        49.3673 
  79   0.0000       1.821437        49.5638 
  80   0.0000       1.854695        50.4688 
  81   0.0000       1.860252        50.6200 
  82   0.0000       1.971842        53.6565 
  83   0.0000       1.983415        53.9715 
  84   0.0000       1.996234        54.3203 
  85   0.0000       2.017481        54.8985 
  86   0.0000       2.047172        55.7064 
  87   0.0000       2.091397        56.9098 
  88   0.0000       2.124019        57.7975 
  89   0.0000       2.144133        58.3448 
  90   0.0000       2.229511        60.6681 
  91   0.0000       2.240517        60.9676 
  92   0.0000       2.254205        61.3400 
  93   0.0000       2.360689        64.2376 
  94   0.0000       2.431237        66.1573 
  95   0.0000       2.436148        66.2910 
  96   0.0000       2.499324        68.0101 
  97   0.0000       2.528615        68.8071 
  98   0.0000       2.631583        71.6090 
  99   0.0000       2.637815        71.7786 
 100   0.0000       2.737384        74.4880 
 101   0.0000       2.760443        75.1155 
 102   0.0000       2.830755        77.0288 
 103   0.0000       2.936636        79.9099 
 104   0.0000       3.000992        81.6612 
 105   0.0000       3.013421        81.9993 
 106   0.0000       3.225444        87.7688 
 107   0.0000       3.263580        88.8065 
 108   0.0000      13.560524       369.0006 
 109   0.0000      13.860713       377.1692 
 110   0.0000      14.003795       381.0626 
 111   0.0000      14.123293       384.3144 
 112   0.0000      19.297084       525.1003 
 113   0.0000      25.707240       699.5296 
 114   0.0000      25.757146       700.8876 

                    ********************************
                    * MULLIKEN POPULATION ANALYSIS *
                    ********************************

-----------------------
MULLIKEN ATOMIC CHARGES
-----------------------
   0 C :   -0.583856
   1 C :   -0.583870
   2 C :    0.527503
   3 C :    0.527583
   4 N :   -0.677515
   5 O :   -0.357251
   6 O :   -0.357175
   7 H :    0.278991
   8 H :    0.279020
   9 H :    0.278996
  10 H :    0.278989
  11 H :    0.388584
Sum of atomic charges:   -0.0000000

--------------------------------
MULLIKEN REDUCED ORBITAL CHARGES
--------------------------------
  0 C s       :     3.363597  s :     3.363597
      pz      :     1.069422  p :     3.180552
      px      :     1.076276
      py      :     1.034854
      dz2     :     0.004296  d :     0.039707
      dxz     :     0.009207
      dyz     :     0.011482
      dx2y2   :     0.011265
      dxy     :     0.003457
  1 C s       :     3.363498  s :     3.363498
      pz      :     1.120934  p :     3.180665
      px      :     1.036735
      py      :     1.022997
      dz2     :     0.011889  d :     0.039706
      dxz     :     0.007532
      dyz     :     0.003031
      dx2y2   :     0.006371
      dxy     :     0.010884
  2 C s       :     2.961845  s :     2.961845
      pz      :     0.749402  p :     2.385717
      px      :     0.783779
      py      :     0.852536
      dz2     :     0.026273  d :     0.124936
      dxz     :     0.024108
      dyz     :     0.017069
      dx2y2   :     0.025188
      dxy     :     0.032298
  3 C s       :     2.961950  s :     2.961950
      pz      :     0.788310  p :     2.385562
      px      :     0.754648
      py      :     0.842604
      dz2     :     0.022758  d :     0.124905
      dxz     :     0.020236
      dyz     :     0.027681
      dx2y2   :     0.027823
      dxy     :     0.026407
  4 N s       :     3.566433  s :     3.566433
      pz      :     1.425636  p :     4.077684
      px      :     1.354307
      py      :     1.297741
      dz2     :     0.005311  d :     0.033397
      dxz     :     0.005568
      dyz     :     0.006597
      dx2y2   :     0.008912
      dxy     :     0.007009
  5 O s       :     3.750191  s :     3.750191
      pz      :     1.505986  p :     4.575610
      px      :     1.396935
      py      :     1.672689
      dz2     :     0.005892  d :     0.031450
      dxz     :     0.007266
      dyz     :     0.004089
      dx2y2   :     0.008071
      dxy     :     0.006133
  6 O s       :     3.750237  s :     3.750237
      pz      :     1.392942  p :     4.575485
      px      :     1.480280
      py      :     1.702263
      dz2     :     0.009796  d :     0.031453
      dxz     :     0.007686
      dyz     :     0.004359
      dx2y2   :     0.004649
      dxy     :     0.004963
  7 H s       :     0.721009  s :     0.721009
  8 H s       :     0.720980  s :     0.720980
  9 H s       :     0.721004  s :     0.721004
 10 H s       :     0.721011  s :     0.721011
 11 H s       :     0.611416  s :     0.611416


                     *******************************
                     * LOEWDIN POPULATION ANALYSIS *
                     *******************************

----------------------
LOEWDIN ATOMIC CHARGES
----------------------
   0 C :   -0.272324
   1 C :   -0.272343
   2 C :    0.119867
   3 C :    0.119969
   4 N :   -0.203194
   5 O :   -0.207522
   6 O :   -0.207446
   7 H :    0.161035
   8 H :    0.161284
   9 H :    0.161107
  10 H :    0.161237
  11 H :    0.278331

-------------------------------
LOEWDIN REDUCED ORBITAL CHARGES
-------------------------------
  0 C s       :     2.920998  s :     2.920998
      pz      :     1.091631  p :     3.269294
      px      :     1.093264
      py      :     1.084400
      dz2     :     0.008419  d :     0.082032
      dxz     :     0.019125
      dyz     :     0.023467
      dx2y2   :     0.024110
      dxy     :     0.006911
  1 C s       :     2.920923  s :     2.920923
      pz      :     1.109301  p :     3.269371
      px      :     1.079878
      py      :     1.080192
      dz2     :     0.022896  d :     0.082049
      dxz     :     0.016089
      dyz     :     0.005898
      dx2y2   :     0.014936
      dxy     :     0.022230
  2 C s       :     2.823879  s :     2.823879
      pz      :     0.858810  p :     2.770290
      px      :     0.923839
      py      :     0.987641
      dz2     :     0.057555  d :     0.285965
      dxz     :     0.060047
      dyz     :     0.036965
      dx2y2   :     0.056262
      dxy     :     0.075134
  3 C s       :     2.823960  s :     2.823960
      pz      :     0.894375  p :     2.770175
      px      :     0.897295
      py      :     0.978505
      dz2     :     0.046513  d :     0.285896
      dxz     :     0.049302
      dyz     :     0.064664
      dx2y2   :     0.064936
      dxy     :     0.060480
  4 N s       :     3.117973  s :     3.117973
      pz      :     1.398593  p :     4.003395
      px      :     1.344255
      py      :     1.260548
      dz2     :     0.012195  d :     0.081826
      dxz     :     0.014429
      dyz     :     0.016118
      dx2y2   :     0.019470
      dxy     :     0.019614
  5 O s       :     3.507759  s :     3.507759
      pz      :     1.512763  p :     4.640803
      px      :     1.448739
      py      :     1.679302
      dz2     :     0.009148  d :     0.058960
      dxz     :     0.015411
      dyz     :     0.006956
      dx2y2   :     0.013156
      dxy     :     0.014289
  6 O s       :     3.507773  s :     3.507773
      pz      :     1.433371  p :     4.640712
      px      :     1.507226
      py      :     1.700114
      dz2     :     0.013286  d :     0.058961
      dxz     :     0.017899
      dyz     :     0.009796
      dx2y2   :     0.008669
      dxy     :     0.009310
  7 H s       :     0.838965  s :     0.838965
  8 H s       :     0.838716  s :     0.838716
  9 H s       :     0.838893  s :     0.838893
 10 H s       :     0.838763  s :     0.838763
 11 H s       :     0.721669  s :     0.721669


                      *****************************
                      * MAYER POPULATION ANALYSIS *
                      *****************************

  NA   - Mulliken gross atomic population
  ZA   - Total nuclear charge
  QA   - Mulliken gross atomic charge
  VA   - Mayer's total valence
  BVA  - Mayer's bonded valence
  FA   - Mayer's free valence

  ATOM       NA         ZA         QA         VA         BVA        FA
  0 C      6.5839     6.0000    -0.5839     3.6234     3.6234    -0.0000
  1 C      6.5839     6.0000    -0.5839     3.6234     3.6234    -0.0000
  2 C      5.4725     6.0000     0.5275     4.0532     4.0532    -0.0000
  3 C      5.4724     6.0000     0.5276     4.0530     4.0530    -0.0000
  4 N      7.6775     7.0000    -0.6775     3.0332     3.0332     0.0000
  5 O      8.3573     8.0000    -0.3573     2.2588     2.2588    -0.0000
  6 O      8.3572     8.0000    -0.3572     2.2588     2.2588     0.0000
  7 H      0.7210     1.0000     0.2790     0.8904     0.8904     0.0000
  8 H      0.7210     1.0000     0.2790     0.8902     0.8902    -0.0000
  9 H      0.7210     1.0000     0.2790     0.8904     0.8904    -0.0000
 10 H      0.7210     1.0000     0.2790     0.8902     0.8902    -0.0000
 11 H      0.6114     1.0000     0.3886     0.8372     0.8372    -0.0000

  Mayer bond orders larger than 0.100000
B(  0-C ,  1-C ) :   0.9335 B(  0-C ,  3-C ) :   0.9139 B(  0-C ,  7-H ) :   0.9011 
B(  0-C ,  8-H ) :   0.9006 B(  1-C ,  2-C ) :   0.9139 B(  1-C ,  9-H ) :   0.9010 
B(  1-C , 10-H ) :   0.9008 B(  2-C ,  4-N ) :   1.0474 B(  2-C ,  5-O ) :   2.1223 
B(  3-C ,  4-N ) :   1.0470 B(  3-C ,  6-O ) :   2.1225 B(  4-N , 11-H ) :   0.8011 


-------
TIMINGS
-------

Total SCF time: 0 days 0 hours 0 min 12 sec 

Total time                  ....      12.596 sec
Sum of individual times     ....      12.500 sec  ( 99.2%)

Fock matrix formation       ....      11.764 sec  ( 93.4%)
  Split-RI-J                ....       0.756 sec  (  6.4% of F)
  Chain of spheres X        ....      10.001 sec  ( 85.0% of F)
  XC integration            ....       1.023 sec  (  8.7% of F)
    Basis function eval.    ....       0.426 sec  ( 41.7% of XC)
    Density eval.           ....       0.186 sec  ( 18.2% of XC)
    XC-Functional eval.     ....       0.138 sec  ( 13.5% of XC)
    XC-Potential eval.      ....       0.211 sec  ( 20.6% of XC)
Diagonalization             ....       0.002 sec  (  0.0%)
Density matrix formation    ....       0.001 sec  (  0.0%)
Population analysis         ....       0.002 sec  (  0.0%)
Initial guess               ....       0.002 sec  (  0.0%)
Orbital Transformation      ....       0.000 sec  (  0.0%)
Orbital Orthonormalization  ....       0.001 sec  (  0.0%)
DIIS solution               ....       0.000 sec  (  0.0%)
SOSCF solution              ....       0.004 sec  (  0.0%)
Grid generation             ....       0.725 sec  (  5.8%)

Maximum memory used throughout the entire SCF-calculation: 59.0 MB


-------------------------------------------------------------------------------
                          DFT DISPERSION CORRECTION                            
                                                                               
                              DFTD3 V3.1  Rev 1                                
                          USING Becke-Johnson damping                          
-------------------------------------------------------------------------------
The PBEh-3c composite method is recognized
Using three-body term ABC
Active option DFTDOPT                   ...         4   

molecular C6(AA) [au] = 1468.547420 


            DFT-D V3
 parameters
 s6 scaling factor         :     1.0000 
 a1 scaling factor         :     0.4860 
 s8 scaling factor         :     0.0000 
 a2 scaling factor         :     4.5000 
 Damping factor alpha9(ATM):    16.0000 
 ad hoc parameters k1-k3   :    16.0000     1.3333    -4.0000 

 Edisp/kcal,au: -3.537124113151  -0.005636765471 
 E6   /kcal   :  -3.548808114 
 E8   /kcal   :  -0.000000000 
 E6(ABC)      :   0.011684001 
 % E8         :   0.000000000 
 % E6(ABC)    :  -0.330324886 

-------------------------   ----------------
Dispersion correction           -0.005636765
-------------------------   ----------------

------------------   -----------------
gCP correction             0.022721277
------------------   -----------------

-------------------------   --------------------
FINAL SINGLE POINT ENERGY      -359.907548095859
-------------------------   --------------------

                                *** OPTIMIZATION RUN DONE ***

                            ***************************************
                            *     ORCA property calculations      *
                            ***************************************

                                    ---------------------
                                    Active property flags
                                    ---------------------
   (+) Dipole Moment


------------------------------------------------------------------------------
                       ORCA ELECTRIC PROPERTIES CALCULATION
------------------------------------------------------------------------------

Dipole Moment Calculation                       ... on
Quadrupole Moment Calculation                   ... off
Polarizability Calculation                      ... off
GBWName                                         ... OPT_F.gbw
Electron density                                ... OPT_F.scfp
The origin for moment calculation is the CENTER OF MASS  = (-11.514380,  0.316859 -10.115484)

-------------
DIPOLE MOMENT
-------------
                                X             Y             Z
Electronic contribution:      0.73321       3.83627      -1.21984
Nuclear contribution   :     -0.87053      -4.58102       1.45020
                        -----------------------------------------
Total Dipole Moment    :     -0.13731      -0.74475       0.23036
                        -----------------------------------------
Magnitude (a.u.)       :      0.79156
Magnitude (Debye)      :      2.01199



--------------------
Rotational spectrum 
--------------------
 
Rotational constants in cm-1:     0.199573     0.076287     0.056329 
Rotational constants in MHz :  5983.058266  2287.034537  1688.698861 

 Dipole components along the rotational axes: 
x,y,z [a.u.] :     0.000214    -0.791523     0.007928 
x,y,z [Debye]:     0.000543    -2.011890     0.020151 

 

Timings for individual modules:

Sum of individual times         ...      280.551 sec (=   4.676 min)
GTO integral calculation        ...        1.738 sec (=   0.029 min)   0.6 %
SCF iterations                  ...      216.765 sec (=   3.613 min)  77.3 %
SCF Gradient evaluation         ...       61.743 sec (=   1.029 min)  22.0 %
Geometry relaxation             ...        0.304 sec (=   0.005 min)   0.1 %
                             ****ORCA TERMINATED NORMALLY****
TOTAL RUN TIME: 0 days 0 hours 4 minutes 41 seconds 678 msec
