14
	Energy:      11.2084064
C         -7.38421        0.61929       -0.08393
C         -7.95914        1.78553        0.67551
O         -7.32534        2.38477        1.52764
C         -4.73631        2.49660       -0.22446
C         -4.91760        1.20365       -0.50913
C         -5.90252        0.28899        0.18652
H         -5.72775       -0.71875       -0.24973
H         -5.69684        0.21851        1.27625
H         -7.99446       -0.25991        0.21492
H         -7.52273        0.77315       -1.17582
H         -8.99348        2.06163        0.49947
H         -3.99705        3.06671       -0.77793
H         -5.28681        3.00896        0.54744
H         -4.29885        0.77056       -1.29052
