      -----------------------------------------------------------      
     |                   =====================                   |     
     |                           x T B                           |     
     |                   =====================                   |     
     |                         S. Grimme                         |     
     |          Mulliken Center for Theoretical Chemistry        |     
     |                    University of Bonn                     |     
      -----------------------------------------------------------      

   * xtb version 6.5.1 (579679a) compiled by 'ehlert@majestix' on 2022-07-11

   xtb is free software: you can redistribute it and/or modify it under
   the terms of the GNU Lesser General Public License as published by
   the Free Software Foundation, either version 3 of the License, or
   (at your option) any later version.
   
   xtb is distributed in the hope that it will be useful,
   but WITHOUT ANY WARRANTY; without even the implied warranty of
   MERCHANTABILITY or FITNESS FOR A PARTICULAR PURPOSE.  See the
   GNU Lesser General Public License for more details.
   
   Cite this work as:
   * C. Bannwarth, E. Caldeweyher, S. Ehlert, A. Hansen, P. Pracht,
     J. Seibert, S. Spicher, S. Grimme, WIREs Comput. Mol. Sci., 2020, 11,
     e01493. DOI: 10.1002/wcms.1493
   
   for GFN2-xTB:
   * C. Bannwarth, S. Ehlert and S. Grimme., J. Chem. Theory Comput., 2019,
     15, 1652-1671. DOI: 10.1021/acs.jctc.8b01176
   for GFN1-xTB:
   * S. Grimme, C. Bannwarth, P. Shushkov, J. Chem. Theory Comput., 2017,
     13, 1989-2009. DOI: 10.1021/acs.jctc.7b00118
   for GFN0-xTB:
   * P. Pracht, E. Caldeweyher, S. Ehlert, S. Grimme, ChemRxiv, 2019, preprint.
     DOI: 10.26434/chemrxiv.8326202.v1
   for GFN-FF:
   * S. Spicher and S. Grimme, Angew. Chem. Int. Ed., 2020, 59, 15665-15673.
     DOI: 10.1002/anie.202004239
   
   for ALPB and GBSA implicit solvation:
   * S. Ehlert, M. Stahn, S. Spicher, S. Grimme, J. Chem. Theory Comput.,
     2021, 17, 4250-4261. DOI: 10.1021/acs.jctc.1c00471
   
   for DFT-D4:
   * E. Caldeweyher, C. Bannwarth and S. Grimme, J. Chem. Phys., 2017,
     147, 034112. DOI: 10.1063/1.4993215
   * E. Caldeweyher, S. Ehlert, A. Hansen, H. Neugebauer, S. Spicher,
     C. Bannwarth and S. Grimme, J. Chem. Phys., 2019, 150, 154122.
     DOI: 10.1063/1.5090222
   * E. Caldeweyher, J.-M. Mewes, S. Ehlert and S. Grimme, Phys. Chem. Chem. Phys.
     2020, 22, 8499-8512. DOI: 10.1039/D0CP00502A
   
   for sTDA-xTB:
   * S. Grimme and C. Bannwarth, J. Chem. Phys., 2016, 145, 054103.
     DOI: 10.1063/1.4959605
   
   in the mass-spec context:
   * V. Asgeirsson, C. Bauer and S. Grimme, Chem. Sci., 2017, 8, 4879.
     DOI: 10.1039/c7sc00601b
   * J. Koopman and S. Grimme, ACS Omega 2019, 4, 12, 15120-15133.
     DOI: 10.1021/acsomega.9b02011
   
   for metadynamics refer to:
   * S. Grimme, J. Chem. Theory Comput., 2019, 155, 2847-2862
     DOI: 10.1021/acs.jctc.9b00143
   
   for SPH calculations refer to:
   * S. Spicher and S. Grimme, J. Chem. Theory Comput., 2021, 17, 1701-1714
     DOI: 10.1021/acs.jctc.0c01306
   
   with help from (in alphabetical order)
   P. Atkinson, C. Bannwarth, F. Bohle, G. Brandenburg, E. Caldeweyher
   M. Checinski, S. Dohm, S. Ehlert, S. Ehrlich, I. Gerasimov, C. Hölzer
   A. Katbashev, J. Koopman, C. Lavigne, S. Lehtola, F. März, M. Müller,
   F. Musil, H. Neugebauer, J. Pisarek, C. Plett, P. Pracht, F. Pultar,
   J. Seibert, P. Shushkov, S. Spicher, M. Stahn, M. Steiner, T. Strunk,
   J. Stückrath, T. Rose, and J. Unsleber
   
 * started run on 2023/06/13 at 16:46:11.730     

           -------------------------------------------------
          |                Calculation Setup                |
           -------------------------------------------------

          program call               : xtb end.xyz --opt
          hostname                   : c04
          coordinate file            : end.xyz
          omp threads                :                     2

   ID    Z sym.   atoms
    1    6 C      1, 2, 4-6
    2    8 O      3
    3    1 H      7-14

           -------------------------------------------------
          |                 G F N 2 - x T B                 |
           -------------------------------------------------

        Reference                      10.1021/acs.jctc.8b01176
      * Hamiltonian:
        H0-scaling (s, p, d)           1.850000    2.230000    2.230000
        zeta-weighting                 0.500000
      * Dispersion:
        s8                             2.700000
        a1                             0.520000
        a2                             5.000000
        s9                             5.000000
      * Repulsion:
        kExp                           1.500000    1.000000
        rExp                           1.000000
      * Coulomb:
        alpha                          2.000000
        third order                    shell-resolved
        anisotropic                    true
        a3                             3.000000
        a5                             4.000000
        cn-shift                       1.200000
        cn-exp                         4.000000
        max-rad                        5.000000


          ...................................................
          :                      SETUP                      :
          :.................................................:
          :  # basis functions                  32          :
          :  # atomic orbitals                  32          :
          :  # shells                           20          :
          :  # electrons                        34          :
          :  max. iterations                   250          :
          :  Hamiltonian                  GFN2-xTB          :
          :  restarted?                      false          :
          :  GBSA solvation                  false          :
          :  PC potential                    false          :
          :  electronic temp.          300.0000000     K    :
          :  accuracy                    1.0000000          :
          :  -> integral cutoff          0.2500000E+02      :
          :  -> integral neglect         0.1000000E-07      :
          :  -> SCF convergence          0.1000000E-05 Eh   :
          :  -> wf. convergence          0.1000000E-03 e    :
          :  Broyden damping             0.4000000          :
          ...................................................

 iter      E             dE          RMSdq      gap      omega  full diag
   1    -18.9762057 -0.189762E+02  0.446E+00    4.52       0.0  T
   2    -19.0218106 -0.456048E-01  0.235E+00    3.45       1.0  T
   3    -19.0253202 -0.350963E-02  0.158E+00    3.92       1.0  T
   4    -19.0318819 -0.656169E-02  0.452E-01    3.49       1.0  T
   5    -19.0333711 -0.148923E-02  0.168E-01    3.45       1.0  T
   6    -19.0336771 -0.305951E-03  0.600E-02    3.49       1.0  T
   7    -19.0336870 -0.988820E-05  0.201E-02    3.50       1.3  T
   8    -19.0336874 -0.479151E-06  0.496E-03    3.50       5.4  T
   9    -19.0336875 -0.535409E-07  0.187E-03    3.50      14.3  T
  10    -19.0336875 -0.667256E-08  0.542E-04    3.50      49.3  T
  11    -19.0336875 -0.273578E-08  0.138E-04    3.50     193.5  T

   *** convergence criteria satisfied after 11 iterations ***

         #    Occupation            Energy/Eh            Energy/eV
      -------------------------------------------------------------
         1        2.0000           -0.7139931             -19.4287
       ...           ...                  ...                  ...
        11        2.0000           -0.4895126             -13.3203
        12        2.0000           -0.4799026             -13.0588
        13        2.0000           -0.4658851             -12.6774
        14        2.0000           -0.4435815             -12.0705
        15        2.0000           -0.4242275             -11.5438
        16        2.0000           -0.4059646             -11.0469
        17        2.0000           -0.3976541             -10.8207 (HOMO)
        18                         -0.2691596              -7.3242 (LUMO)
        19                         -0.2060943              -5.6081
        20                          0.0549147               1.4943
        21                          0.0665303               1.8104
        22                          0.1046334               2.8472
       ...                                ...                  ...
        32                          0.5716309              15.5549
      -------------------------------------------------------------
                  HL-Gap            0.1284944 Eh            3.4965 eV
             Fermi-level           -0.3334068 Eh           -9.0725 eV

 SCC (total)                   0 d,  0 h,  0 min,  0.009 sec
 SCC setup                      ...        0 min,  0.000 sec (  2.815%)
 Dispersion                     ...        0 min,  0.000 sec (  1.354%)
 classical contributions        ...        0 min,  0.000 sec (  0.265%)
 integral evaluation            ...        0 min,  0.001 sec ( 11.088%)
 iterations                     ...        0 min,  0.005 sec ( 60.459%)
 molecular gradient             ...        0 min,  0.002 sec ( 21.851%)
 printout                       ...        0 min,  0.000 sec (  1.451%)

         :::::::::::::::::::::::::::::::::::::::::::::::::::::
         ::                     SUMMARY                     ::
         :::::::::::::::::::::::::::::::::::::::::::::::::::::
         :: total energy             -18.781871896711 Eh    ::
         :: gradient norm              0.066461951849 Eh/a0 ::
         :: HOMO-LUMO gap              3.496510975494 eV    ::
         ::.................................................::
         :: SCC energy               -19.033687508944 Eh    ::
         :: -> isotropic ES            0.023766436469 Eh    ::
         :: -> anisotropic ES          0.002911353373 Eh    ::
         :: -> anisotropic XC          0.011347562593 Eh    ::
         :: -> dispersion             -0.008087159154 Eh    ::
         :: repulsion energy           0.251799271968 Eh    ::
         :: add. restraining           0.000000000000 Eh    ::
         :: total charge              -0.000000000000 e     ::
         :::::::::::::::::::::::::::::::::::::::::::::::::::::

      ----------------------------------------------------------- 
     |                   =====================                   |
     |                        A N C O P T                        |
     |                   =====================                   |
     |               Approximate Normal Coordinate               |
     |                Rational Function Optimizer                |
      ----------------------------------------------------------- 

          ...................................................
          :                      SETUP                      :
          :.................................................:
          :   optimization level            normal          :
          :   max. optcycles                   200          :
          :   ANC micro-cycles                  20          :
          :   degrees of freedom                36          :
          :.................................................:
          :   RF solver                   davidson          :
          :   write xtbopt.log                true          :
          :   linear?                        false          :
          :   energy convergence         0.5000000E-05 Eh   :
          :   grad. convergence          0.1000000E-02 Eh/α :
          :   maximium RF displ.         1.0000000          :
          :   Hlow (freq-cutoff)         0.1000000E-01      :
          :   Hmax (freq-cutoff)         5.0000000          :
          :   S6 in model hess.         20.0000000          :
          ...................................................

generating ANC from model Hessian ...
Using Lindh-Hessian (1995)
 Shifting diagonal of input Hessian by   7.100135564520954E-003
 Lowest  eigenvalues of input Hessian
    0.000000    0.000000    0.000000    0.000000    0.000000    0.000000
    0.010000    0.010284    0.013044    0.019114    0.021510    0.025414
    0.031203    0.043849    0.048988    0.056428    0.060511    0.068937
 Highest eigenvalues
    1.119206    1.159579    1.374008    1.469076    1.860829    2.102903
 

........................................................................
.............................. CYCLE    1 ..............................
........................................................................
   1    -19.0336875 -0.190337E+02  0.840E-05    3.50       0.0  T
   2    -19.0336875 -0.518838E-10  0.433E-05    3.50     617.7  T
   3    -19.0336875 -0.228084E-10  0.126E-05    3.50    2124.7  T
     SCC iter.                  ...        0 min,  0.001 sec
     gradient                   ...        0 min,  0.002 sec
 * total energy  :   -18.7818719 Eh     change       -0.2279066E-10 Eh
   gradient norm :     0.0664632 Eh/α   predicted     0.0000000E+00 (-100.00%)
   displ. norm   :     0.2181830 α      lambda       -0.6113428E-02
   maximum displ.:     0.0915171 α      in ANC's #17, #7, #14, ...

........................................................................
.............................. CYCLE    2 ..............................
........................................................................
   1    -19.0536355 -0.190536E+02  0.246E-01    3.69       0.0  T
   2    -19.0536949 -0.594199E-04  0.137E-01    3.65       1.0  T
   3    -19.0536887  0.617444E-05  0.519E-02    3.64       1.0  T
   4    -19.0536965 -0.779790E-05  0.201E-02    3.64       1.3  T
   5    -19.0537007 -0.415651E-05  0.570E-03    3.64       4.7  T
   6    -19.0537008 -0.143353E-06  0.207E-03    3.64      12.9  T
   7    -19.0537008 -0.137124E-07  0.925E-04    3.64      28.9  T
   8    -19.0537008 -0.253362E-08  0.219E-04    3.64     122.1  T
     SCC iter.                  ...        0 min,  0.002 sec
     gradient                   ...        0 min,  0.001 sec
 * total energy  :   -18.7859007 Eh     change       -0.4028830E-02 Eh
   gradient norm :     0.0243043 Eh/α   predicted    -0.3202229E-02 ( -20.52%)
   displ. norm   :     0.2269246 α      lambda       -0.1989088E-02
   maximum displ.:     0.1141576 α      in ANC's #3, #6, #5, ...

........................................................................
.............................. CYCLE    3 ..............................
........................................................................
   1    -19.0615672 -0.190616E+02  0.249E-01    3.74       0.0  T
   2    -19.0615883 -0.210648E-04  0.143E-01    3.71       1.0  T
   3    -19.0615750  0.132695E-04  0.439E-02    3.71       1.0  T
   4    -19.0615899 -0.148825E-04  0.141E-02    3.70       1.9  T
   5    -19.0615918 -0.186885E-05  0.397E-03    3.71       6.7  T
   6    -19.0615918 -0.616790E-07  0.147E-03    3.71      18.1  T
   7    -19.0615919 -0.576018E-08  0.674E-04    3.71      39.7  T
   8    -19.0615919 -0.129256E-08  0.151E-04    3.71     177.0  T
     SCC iter.                  ...        0 min,  0.002 sec
     gradient                   ...        0 min,  0.001 sec
 * total energy  :   -18.7867541 Eh     change       -0.8533831E-03 Eh
   gradient norm :     0.0105293 Eh/α   predicted    -0.1045760E-02 (  22.54%)
   displ. norm   :     0.1924322 α      lambda       -0.9152265E-03
   maximum displ.:     0.1444405 α      in ANC's #3, #8, #4, ...

........................................................................
.............................. CYCLE    4 ..............................
........................................................................
   1    -19.0615142 -0.190615E+02  0.239E-01    3.75       0.0  T
   2    -19.0615195 -0.535189E-05  0.142E-01    3.74       1.0  T
   3    -19.0615194  0.109566E-06  0.132E-02    3.73       2.0  T
   4    -19.0615203 -0.854584E-06  0.780E-03    3.73       3.4  T
   5    -19.0615207 -0.442595E-06  0.336E-03    3.74       8.0  T
   6    -19.0615207 -0.391180E-07  0.133E-03    3.74      20.1  T
   7    -19.0615207 -0.192296E-08  0.311E-04    3.74      85.9  T
   8    -19.0615207 -0.543288E-09  0.140E-04    3.74     191.0  T
     SCC iter.                  ...        0 min,  0.002 sec
     gradient                   ...        0 min,  0.001 sec
 * total energy  :   -18.7870829 Eh     change       -0.3288134E-03 Eh
   gradient norm :     0.0130433 Eh/α   predicted    -0.4745596E-03 (  44.32%)
   displ. norm   :     0.1131592 α      lambda       -0.3864481E-03
   maximum displ.:     0.0823401 α      in ANC's #3, #2, #6, ...

........................................................................
.............................. CYCLE    5 ..............................
........................................................................
   1    -19.0594237 -0.190594E+02  0.124E-01    3.71       0.0  T
   2    -19.0594253 -0.160165E-05  0.731E-02    3.71       1.0  T
   3    -19.0594252  0.114061E-06  0.645E-03    3.72       4.1  T
   4    -19.0594254 -0.250717E-06  0.308E-03    3.71       8.7  T
   5    -19.0594255 -0.654694E-07  0.146E-03    3.71      18.2  T
   6    -19.0594255 -0.154103E-07  0.441E-04    3.71      60.6  T
   7    -19.0594255 -0.107246E-09  0.167E-04    3.71     160.4  T
     SCC iter.                  ...        0 min,  0.002 sec
     gradient                   ...        0 min,  0.001 sec
 * total energy  :   -18.7873756 Eh     change       -0.2926917E-03 Eh
   gradient norm :     0.0061927 Eh/α   predicted    -0.1956971E-03 ( -33.14%)
   displ. norm   :     0.2696089 α      lambda       -0.4805830E-03
   maximum displ.:     0.1798236 α      in ANC's #3, #2, #5, ...

........................................................................
.............................. CYCLE    6 ..............................
........................................................................
   1    -19.0571367 -0.190571E+02  0.255E-01    3.68       0.0  T
   2    -19.0571388 -0.216176E-05  0.151E-01    3.69       1.0  T
   3    -19.0571388  0.954200E-08  0.826E-03    3.69       3.2  T
   4    -19.0571393 -0.429423E-06  0.440E-03    3.69       6.1  T
   5    -19.0571394 -0.139397E-06  0.201E-03    3.69      13.3  T
   6    -19.0571394 -0.173535E-07  0.688E-04    3.69      38.9  T
   7    -19.0571394 -0.536751E-09  0.226E-04    3.69     118.5  T
     SCC iter.                  ...        0 min,  0.002 sec
     gradient                   ...        0 min,  0.001 sec
 * total energy  :   -18.7876654 Eh     change       -0.2897798E-03 Eh
   gradient norm :     0.0073609 Eh/α   predicted    -0.2577565E-03 ( -11.05%)
   displ. norm   :     0.2181459 α      lambda       -0.2813171E-03
   maximum displ.:     0.1497034 α      in ANC's #3, #2, #5, ...

........................................................................
.............................. CYCLE    7 ..............................
........................................................................
   1    -19.0571360 -0.190571E+02  0.217E-01    3.68       0.0  T
   2    -19.0571367 -0.647918E-06  0.128E-01    3.68       1.0  T
   3    -19.0571360  0.681607E-06  0.953E-03    3.68       2.8  T
   4    -19.0571370 -0.102685E-05  0.246E-03    3.68      10.9  T
   5    -19.0571371 -0.189063E-07  0.124E-03    3.68      21.5  T
   6    -19.0571371 -0.206617E-08  0.254E-04    3.68     105.2  T
   7    -19.0571371 -0.113420E-09  0.128E-04    3.68     209.1  T
     SCC iter.                  ...        0 min,  0.002 sec
     gradient                   ...        0 min,  0.001 sec
 * total energy  :   -18.7878297 Eh     change       -0.1642946E-03 Eh
   gradient norm :     0.0083616 Eh/α   predicted    -0.1473557E-03 ( -10.31%)
   displ. norm   :     0.1956446 α      lambda       -0.2817297E-03
   maximum displ.:     0.1269691 α      in ANC's #2, #3, #5, ...

........................................................................
.............................. CYCLE    8 ..............................
........................................................................
   1    -19.0599280 -0.190599E+02  0.174E-01    3.70       0.0  T
   2    -19.0599291 -0.118278E-05  0.103E-01    3.70       1.0  T
   3    -19.0599280  0.116033E-05  0.111E-02    3.70       2.4  T
   4    -19.0599294 -0.138008E-05  0.356E-03    3.70       7.5  T
   5    -19.0599295 -0.119534E-06  0.116E-03    3.70      23.1  T
   6    -19.0599295 -0.875282E-09  0.374E-04    3.70      71.5  T
   7    -19.0599295 -0.157360E-09  0.107E-04    3.70     248.7  T
     SCC iter.                  ...        0 min,  0.002 sec
     gradient                   ...        0 min,  0.001 sec
 * total energy  :   -18.7880415 Eh     change       -0.2117728E-03 Eh
   gradient norm :     0.0050315 Eh/α   predicted    -0.1462560E-03 ( -30.94%)
   displ. norm   :     0.2517737 α      lambda       -0.2599040E-03
   maximum displ.:     0.1746111 α      in ANC's #2, #3, #5, ...

........................................................................
.............................. CYCLE    9 ..............................
........................................................................
   1    -19.0616165 -0.190616E+02  0.225E-01    3.70       0.0  T
   2    -19.0616175 -0.101236E-05  0.133E-01    3.70       1.0  T
   3    -19.0616132  0.438879E-05  0.205E-02    3.70       1.3  T
   4    -19.0616183 -0.512871E-05  0.275E-03    3.70       9.7  T
   5    -19.0616183 -0.251437E-07  0.147E-03    3.70      18.2  T
   6    -19.0616183 -0.187536E-08  0.270E-04    3.70      99.1  T
   7    -19.0616183 -0.862848E-10  0.118E-04    3.70     226.4  T
     SCC iter.                  ...        0 min,  0.002 sec
     gradient                   ...        0 min,  0.001 sec
 * total energy  :   -18.7882209 Eh     change       -0.1794700E-03 Eh
   gradient norm :     0.0037911 Eh/α   predicted    -0.1381895E-03 ( -23.00%)
   displ. norm   :     0.2681104 α      lambda       -0.1872224E-03
   maximum displ.:     0.2113212 α      in ANC's #2, #3, #5, ...

........................................................................
.............................. CYCLE   10 ..............................
........................................................................
   1    -19.0623021 -0.190623E+02  0.237E-01    3.71       0.0  T
   2    -19.0623030 -0.953472E-06  0.140E-01    3.71       1.0  T
   3    -19.0623032 -0.228592E-06  0.382E-03    3.71       7.0  T
   4    -19.0623033 -0.856933E-07  0.244E-03    3.71      10.9  T
   5    -19.0623033 -0.271193E-07  0.111E-03    3.71      24.1  T
   6    -19.0623034 -0.477795E-08  0.258E-04    3.71     103.5  T
   7    -19.0623034 -0.100037E-09  0.900E-05    3.71     296.9  T
     SCC iter.                  ...        0 min,  0.002 sec
     gradient                   ...        0 min,  0.001 sec
 * total energy  :   -18.7883576 Eh     change       -0.1366582E-03 Eh
   gradient norm :     0.0060336 Eh/α   predicted    -0.1003404E-03 ( -26.58%)
   displ. norm   :     0.2857987 α      lambda       -0.2258275E-03
   maximum displ.:     0.2390877 α      in ANC's #2, #1, #5, ...

........................................................................
.............................. CYCLE   11 ..............................
........................................................................
   1    -19.0642019 -0.190642E+02  0.234E-01    3.71       0.0  T
   2    -19.0642026 -0.763612E-06  0.138E-01    3.71       1.0  T
   3    -19.0642014  0.120472E-05  0.119E-02    3.71       2.3  T
   4    -19.0642031 -0.167468E-05  0.215E-03    3.71      12.4  T
   5    -19.0642031 -0.474365E-08  0.597E-04    3.71      44.7  T
   6    -19.0642031 -0.792930E-09  0.205E-04    3.71     130.7  T
     SCC iter.                  ...        0 min,  0.002 sec
     gradient                   ...        0 min,  0.001 sec
 * total energy  :   -18.7885177 Eh     change       -0.1600615E-03 Eh
   gradient norm :     0.0069688 Eh/α   predicted    -0.1221389E-03 ( -23.69%)
   displ. norm   :     0.6167308 α      lambda       -0.3882218E-03
   maximum displ.:     0.4913571 α      in ANC's #2, #3, #1, ...

........................................................................
.............................. CYCLE   12 ..............................
........................................................................
   1    -19.0544682 -0.190545E+02  0.536E-01    3.67       0.0  T
   2    -19.0544757 -0.749383E-05  0.316E-01    3.68       1.0  T
   3    -19.0544745  0.117551E-05  0.177E-02    3.68       1.5  T
   4    -19.0544774 -0.288298E-05  0.852E-03    3.68       3.1  T
   5    -19.0544780 -0.573665E-06  0.296E-03    3.68       9.0  T
   6    -19.0544780 -0.476023E-08  0.132E-03    3.68      20.2  T
   7    -19.0544780 -0.704944E-08  0.282E-04    3.68      94.6  T
   8    -19.0544780 -0.304013E-09  0.120E-04    3.68     223.2  T
     SCC iter.                  ...        0 min,  0.002 sec
     gradient                   ...        0 min,  0.001 sec
 * total energy  :   -18.7883311 Eh     change        0.1865180E-03 Eh
   gradient norm :     0.0181228 Eh/α   predicted    -0.2679454E-03 (-243.66%)
   displ. norm   :     0.2337427 α      lambda       -0.1070889E-02
   maximum displ.:     0.1440994 α      in ANC's #2, #3, #5, ...

........................................................................
.............................. CYCLE   13 ..............................
........................................................................
   1    -19.0624607 -0.190625E+02  0.212E-01    3.71       0.0  T
   2    -19.0624619 -0.121698E-05  0.125E-01    3.71       1.0  T
   3    -19.0624569  0.500935E-05  0.222E-02    3.71       1.2  T
   4    -19.0624628 -0.589648E-05  0.296E-03    3.71       9.0  T
   5    -19.0624628 -0.106462E-07  0.158E-03    3.71      17.0  T
   6    -19.0624628 -0.246483E-08  0.447E-04    3.71      59.8  T
   7    -19.0624628 -0.530960E-09  0.170E-04    3.71     157.0  T
     SCC iter.                  ...        0 min,  0.002 sec
     gradient                   ...        0 min,  0.002 sec
 * total energy  :   -18.7887504 Eh     change       -0.4192755E-03 Eh
   gradient norm :     0.0077965 Eh/α   predicted    -0.5646957E-03 (  34.68%)
   displ. norm   :     0.1210663 α      lambda       -0.2358205E-03
   maximum displ.:     0.0780023 α      in ANC's #1, #2, #7, ...

........................................................................
.............................. CYCLE   14 ..............................
........................................................................
   1    -19.0635548 -0.190636E+02  0.119E-01    3.73       0.0  T
   2    -19.0635560 -0.121155E-05  0.701E-02    3.73       1.0  T
   3    -19.0635550  0.103472E-05  0.116E-02    3.72       2.3  T
   4    -19.0635562 -0.124050E-05  0.294E-03    3.72       9.1  T
   5    -19.0635563 -0.841276E-07  0.159E-03    3.72      16.9  T
   6    -19.0635563 -0.843731E-08  0.576E-04    3.72      46.4  T
   7    -19.0635563 -0.721112E-09  0.138E-04    3.72     194.3  T
     SCC iter.                  ...        0 min,  0.002 sec
     gradient                   ...        0 min,  0.001 sec
 * total energy  :   -18.7888338 Eh     change       -0.8341776E-04 Eh
   gradient norm :     0.0079345 Eh/α   predicted    -0.1196402E-03 (  43.42%)
   displ. norm   :     0.2282421 α      lambda       -0.1852948E-03
   maximum displ.:     0.1588405 α      in ANC's #2, #1, #23, ...

........................................................................
.............................. CYCLE   15 ..............................
........................................................................
   1    -19.0620924 -0.190621E+02  0.198E-01    3.72       0.0  T
   2    -19.0620934 -0.991408E-06  0.117E-01    3.72       1.0  T
   3    -19.0620936 -0.207676E-06  0.411E-03    3.72       6.5  T
   4    -19.0620937 -0.683144E-07  0.222E-03    3.72      12.1  T
   5    -19.0620937 -0.243021E-07  0.123E-03    3.72      21.7  T
   6    -19.0620937 -0.460101E-08  0.541E-04    3.72      49.4  T
   7    -19.0620937 -0.198726E-08  0.144E-04    3.72     185.8  T
     SCC iter.                  ...        0 min,  0.002 sec
     gradient                   ...        0 min,  0.001 sec
 * total energy  :   -18.7889717 Eh     change       -0.1378797E-03 Eh
   gradient norm :     0.0052329 Eh/α   predicted    -0.9747435E-04 ( -29.30%)
   displ. norm   :     0.3477708 α      lambda       -0.2078351E-03
   maximum displ.:     0.2390412 α      in ANC's #1, #2, #21, ...

........................................................................
.............................. CYCLE   16 ..............................
........................................................................
   1    -19.0581589 -0.190582E+02  0.309E-01    3.69       0.0  T
   2    -19.0581614 -0.253460E-05  0.182E-01    3.70       1.0  T
   3    -19.0581617 -0.300716E-06  0.732E-03    3.69       3.7  T
   4    -19.0581621 -0.407723E-06  0.310E-03    3.70       8.6  T
   5    -19.0581622 -0.266442E-07  0.180E-03    3.70      14.9  T
   6    -19.0581622 -0.428342E-08  0.923E-04    3.70      29.0  T
   7    -19.0581622 -0.599566E-08  0.309E-04    3.70      86.4  T
     SCC iter.                  ...        0 min,  0.002 sec
     gradient                   ...        0 min,  0.001 sec
 * total energy  :   -18.7890608 Eh     change       -0.8912555E-04 Eh
   gradient norm :     0.0086104 Eh/α   predicted    -0.1164943E-03 (  30.71%)
   displ. norm   :     0.1123741 α      lambda       -0.1914192E-03
   maximum displ.:     0.0836339 α      in ANC's #1, #2, #5, ...

........................................................................
.............................. CYCLE   17 ..............................
........................................................................
   1    -19.0616807 -0.190617E+02  0.919E-02    3.70       0.0  T
   2    -19.0616812 -0.549970E-06  0.543E-02    3.71       1.0  T
   3    -19.0616813 -0.246768E-07  0.335E-03    3.71       8.0  T
   4    -19.0616813 -0.556832E-07  0.226E-03    3.71      11.8  T
   5    -19.0616814 -0.387011E-07  0.895E-04    3.71      29.9  T
   6    -19.0616814 -0.195833E-08  0.399E-04    3.71      66.9  T
     SCC iter.                  ...        0 min,  0.002 sec
     gradient                   ...        0 min,  0.001 sec
 * total energy  :   -18.7891483 Eh     change       -0.8744938E-04 Eh
   gradient norm :     0.0109388 Eh/α   predicted    -0.9691781E-04 (  10.83%)
   displ. norm   :     0.1347317 α      lambda       -0.1830721E-03
   maximum displ.:     0.1174697 α      in ANC's #1, #23, #3, ...

........................................................................
.............................. CYCLE   18 ..............................
........................................................................
   1    -19.0631130 -0.190631E+02  0.127E-01    3.70       0.0  T
   2    -19.0631135 -0.497778E-06  0.747E-02    3.69       1.0  T
   3    -19.0631136 -0.140440E-07  0.419E-03    3.69       6.4  T
   4    -19.0631137 -0.124680E-06  0.203E-03    3.70      13.1  T
   5    -19.0631137 -0.205899E-07  0.107E-03    3.70      25.1  T
   6    -19.0631137 -0.402989E-08  0.518E-04    3.70      51.5  T
   7    -19.0631137 -0.104793E-08  0.166E-04    3.70     161.1  T
     SCC iter.                  ...        0 min,  0.002 sec
     gradient                   ...        0 min,  0.001 sec
 * total energy  :   -18.7892560 Eh     change       -0.1077388E-03 Eh
   gradient norm :     0.0042282 Eh/α   predicted    -0.9319801E-04 ( -13.50%)
   displ. norm   :     0.3651632 α      lambda       -0.1899298E-03
   maximum displ.:     0.2993548 α      in ANC's #1, #2, #23, ...

........................................................................
.............................. CYCLE   19 ..............................
........................................................................
   1    -19.0602053 -0.190602E+02  0.335E-01    3.66       0.0  T
   2    -19.0602077 -0.247390E-05  0.198E-01    3.66       1.0  T
   3    -19.0602056  0.219121E-05  0.175E-02    3.66       1.5  T
   4    -19.0602088 -0.325932E-05  0.446E-03    3.66       6.0  T
   5    -19.0602089 -0.698994E-07  0.277E-03    3.66       9.6  T
   6    -19.0602089 -0.306581E-07  0.105E-03    3.66      25.5  T
   7    -19.0602089 -0.251755E-08  0.311E-04    3.66      86.1  T
   8    -19.0602089 -0.129667E-09  0.143E-04    3.66     187.2  T
     SCC iter.                  ...        0 min,  0.003 sec
     gradient                   ...        0 min,  0.001 sec
 * total energy  :   -18.7893321 Eh     change       -0.7603429E-04 Eh
   gradient norm :     0.0089868 Eh/α   predicted    -0.1076238E-03 (  41.55%)
   displ. norm   :     0.0549201 α      lambda       -0.1174668E-03
   maximum displ.:     0.0457608 α      in ANC's #2, #5, #4, ...

........................................................................
.............................. CYCLE   20 ..............................
........................................................................
   1    -19.0633093 -0.190633E+02  0.454E-02    3.70       0.0  T
   2    -19.0633102 -0.818349E-06  0.269E-02    3.69       1.0  T
   3    -19.0633100  0.180020E-06  0.621E-03    3.69       4.3  T
   4    -19.0633102 -0.252487E-06  0.195E-03    3.69      13.7  T
   5    -19.0633103 -0.308302E-07  0.915E-04    3.69      29.2  T
   6    -19.0633103 -0.541977E-08  0.350E-04    3.69      76.3  T
     SCC iter.                  ...        0 min,  0.002 sec
     gradient                   ...        0 min,  0.001 sec
 * total energy  :   -18.7893920 Eh     change       -0.5993692E-04 Eh
   gradient norm :     0.0035933 Eh/α   predicted    -0.5891010E-04 (  -1.71%)
   displ. norm   :     0.1679281 α      lambda       -0.6455515E-04
   maximum displ.:     0.1482196 α      in ANC's #1, #23, #2, ...
 * RMSD in coord.:     0.7903522 α      energy gain  -0.7520095E-02 Eh

generating ANC from model Hessian ...
Using Lindh-Hessian (1995)
 Shifting diagonal of input Hessian by   6.781301054874909E-003
 Lowest  eigenvalues of input Hessian
    0.000000    0.000000    0.000000    0.000000    0.000000    0.000000
    0.010000    0.010525    0.013494    0.018864    0.023374    0.027092
    0.033646    0.047987    0.050884    0.062046    0.068101    0.073849
 Highest eigenvalues
    1.184530    1.193753    1.350822    1.517460    1.957044    2.205934
 

........................................................................
.............................. CYCLE   21 ..............................
........................................................................
   1    -19.0628379 -0.190628E+02  0.151E-01    3.67       0.0  T
   2    -19.0628387 -0.806422E-06  0.892E-02    3.67       1.0  T
   3    -19.0628384  0.323616E-06  0.756E-03    3.67       3.5  T
   4    -19.0628389 -0.544069E-06  0.257E-03    3.67      10.4  T
   5    -19.0628390 -0.391713E-07  0.144E-03    3.67      18.6  T
   6    -19.0628390 -0.822574E-08  0.649E-04    3.67      41.2  T
   7    -19.0628390 -0.866454E-09  0.205E-04    3.67     130.2  T
     SCC iter.                  ...        0 min,  0.002 sec
     gradient                   ...        0 min,  0.001 sec
 * total energy  :   -18.7894281 Eh     change       -0.3608379E-04 Eh
   gradient norm :     0.0048305 Eh/α   predicted     0.0000000E+00 (-100.00%)
   displ. norm   :     0.0377049 α      lambda       -0.5079975E-04
   maximum displ.:     0.0216548 α      in ANC's #2, #3, #1, ...

........................................................................
.............................. CYCLE   22 ..............................
........................................................................
   1    -19.0636517 -0.190637E+02  0.355E-02    3.69       0.0  T
   2    -19.0636518 -0.115272E-06  0.211E-02    3.68       1.3  T
   3    -19.0636517  0.800798E-07  0.334E-03    3.68       8.0  T
   4    -19.0636518 -0.105814E-06  0.880E-04    3.68      30.4  T
   5    -19.0636518 -0.421804E-08  0.531E-04    3.68      50.4  T
     SCC iter.                  ...        0 min,  0.001 sec
     gradient                   ...        0 min,  0.001 sec
 * total energy  :   -18.7894586 Eh     change       -0.3051415E-04 Eh
   gradient norm :     0.0013352 Eh/α   predicted    -0.2543639E-04 ( -16.64%)
   displ. norm   :     0.0550079 α      lambda       -0.1494833E-04
   maximum displ.:     0.0385006 α      in ANC's #2, #3, #1, ...

........................................................................
.............................. CYCLE   23 ..............................
........................................................................
   1    -19.0641148 -0.190641E+02  0.486E-02    3.69       0.0  T
   2    -19.0641149 -0.818031E-07  0.288E-02    3.69       1.0  T
   3    -19.0641142  0.724640E-06  0.836E-03    3.69       3.2  T
   4    -19.0641150 -0.816232E-06  0.875E-04    3.69      30.5  T
   5    -19.0641150 -0.845407E-09  0.470E-04    3.69      56.9  T
     SCC iter.                  ...        0 min,  0.001 sec
     gradient                   ...        0 min,  0.001 sec
 * total energy  :   -18.7894652 Eh     change       -0.6653774E-05 Eh
   gradient norm :     0.0021355 Eh/α   predicted    -0.7483958E-05 (  12.48%)
   displ. norm   :     0.0344651 α      lambda       -0.1543054E-04
   maximum displ.:     0.0221441 α      in ANC's #2, #1, #3, ...

........................................................................
.............................. CYCLE   24 ..............................
........................................................................
   1    -19.0641311 -0.190641E+02  0.323E-02    3.69       0.0  T
   2    -19.0641312 -0.276461E-07  0.191E-02    3.69       1.4  T
   3    -19.0641308  0.386479E-06  0.599E-03    3.69       4.5  T
   4    -19.0641312 -0.432273E-06  0.560E-04    3.69      47.7  T
   5    -19.0641312 -0.228574E-09  0.294E-04    3.69      91.0  T
     SCC iter.                  ...        0 min,  0.001 sec
     gradient                   ...        0 min,  0.001 sec
 * total energy  :   -18.7894751 Eh     change       -0.9829664E-05 Eh
   gradient norm :     0.0017496 Eh/α   predicted    -0.7726072E-05 ( -21.40%)
   displ. norm   :     0.0559195 α      lambda       -0.1100346E-04
   maximum displ.:     0.0419609 α      in ANC's #2, #1, #5, ...

........................................................................
.............................. CYCLE   25 ..............................
........................................................................
   1    -19.0637581 -0.190638E+02  0.518E-02    3.68       0.0  T
   2    -19.0637581 -0.618554E-07  0.306E-02    3.68       1.0  T
   3    -19.0637578  0.369385E-06  0.580E-03    3.68       4.6  T
   4    -19.0637582 -0.420836E-06  0.710E-04    3.68      37.7  T
   5    -19.0637582 -0.120200E-08  0.338E-04    3.68      79.1  T
     SCC iter.                  ...        0 min,  0.001 sec
     gradient                   ...        0 min,  0.002 sec
 * total energy  :   -18.7894867 Eh     change       -0.1162097E-04 Eh
   gradient norm :     0.0010209 Eh/α   predicted    -0.5507636E-05 ( -52.61%)
   displ. norm   :     0.0724255 α      lambda       -0.1023800E-04
   maximum displ.:     0.0526141 α      in ANC's #2, #1, #5, ...

........................................................................
.............................. CYCLE   26 ..............................
........................................................................
   1    -19.0635659 -0.190636E+02  0.653E-02    3.68       0.0  T
   2    -19.0635660 -0.834531E-07  0.384E-02    3.68       1.0  T
   3    -19.0635653  0.663236E-06  0.781E-03    3.68       3.4  T
   4    -19.0635661 -0.747938E-06  0.772E-04    3.68      34.6  T
   5    -19.0635661 -0.217488E-08  0.398E-04    3.68      67.2  T
     SCC iter.                  ...        0 min,  0.002 sec
     gradient                   ...        0 min,  0.001 sec
 * total energy  :   -18.7894990 Eh     change       -0.1227465E-04 Eh
   gradient norm :     0.0013097 Eh/α   predicted    -0.5130021E-05 ( -58.21%)
   displ. norm   :     0.1014837 α      lambda       -0.1263062E-04
   maximum displ.:     0.0730401 α      in ANC's #2, #1, #5, ...

........................................................................
.............................. CYCLE   27 ..............................
........................................................................
   1    -19.0635161 -0.190635E+02  0.909E-02    3.68       0.0  T
   2    -19.0635162 -0.143155E-06  0.535E-02    3.68       1.0  T
   3    -19.0635142  0.204265E-05  0.137E-02    3.68       2.0  T
   4    -19.0635165 -0.227040E-05  0.933E-04    3.68      28.6  T
   5    -19.0635165 -0.335262E-08  0.504E-04    3.68      53.1  T
   6    -19.0635165 -0.296897E-09  0.132E-04    3.68     201.8  T
     SCC iter.                  ...        0 min,  0.002 sec
     gradient                   ...        0 min,  0.001 sec
 * total energy  :   -18.7895121 Eh     change       -0.1308911E-04 Eh
   gradient norm :     0.0011789 Eh/α   predicted    -0.6345357E-05 ( -51.52%)
   displ. norm   :     0.1225011 α      lambda       -0.1327240E-04
   maximum displ.:     0.0860375 α      in ANC's #2, #1, #5, ...

........................................................................
.............................. CYCLE   28 ..............................
........................................................................
   1    -19.0635674 -0.190636E+02  0.105E-01    3.68       0.0  T
   2    -19.0635676 -0.202140E-06  0.618E-02    3.68       1.0  T
   3    -19.0635654  0.214500E-05  0.141E-02    3.68       1.9  T
   4    -19.0635678 -0.240892E-05  0.118E-03    3.68      22.7  T
   5    -19.0635678 -0.278649E-08  0.642E-04    3.68      41.6  T
   6    -19.0635678 -0.647219E-09  0.165E-04    3.68     162.4  T
     SCC iter.                  ...        0 min,  0.002 sec
     gradient                   ...        0 min,  0.001 sec
 * total energy  :   -18.7895249 Eh     change       -0.1285985E-04 Eh
   gradient norm :     0.0011030 Eh/α   predicted    -0.6681184E-05 ( -48.05%)
   displ. norm   :     0.1044895 α      lambda       -0.7901457E-05
   maximum displ.:     0.0750215 α      in ANC's #2, #1, #6, ...

........................................................................
.............................. CYCLE   29 ..............................
........................................................................
   1    -19.0637121 -0.190637E+02  0.915E-02    3.68       0.0  T
   2    -19.0637122 -0.144554E-06  0.539E-02    3.68       1.0  T
   3    -19.0637096  0.268257E-05  0.157E-02    3.68       1.7  T
   4    -19.0637125 -0.297991E-05  0.899E-04    3.68      29.7  T
   5    -19.0637125 -0.682299E-09  0.476E-04    3.68      56.1  T
   6    -19.0637125 -0.336634E-09  0.125E-04    3.68     213.6  T
     SCC iter.                  ...        0 min,  0.002 sec
     gradient                   ...        0 min,  0.001 sec
 * total energy  :   -18.7895325 Eh     change       -0.7619705E-05 Eh
   gradient norm :     0.0007744 Eh/α   predicted    -0.3970450E-05 ( -47.89%)
   displ. norm   :     0.0863796 α      lambda       -0.4782803E-05
   maximum displ.:     0.0663581 α      in ANC's #2, #1, #3, ...

........................................................................
.............................. CYCLE   30 ..............................
........................................................................
   1    -19.0639244 -0.190639E+02  0.766E-02    3.68       0.0  T
   2    -19.0639245 -0.940765E-07  0.452E-02    3.68       1.0  T
   3    -19.0639233  0.119063E-05  0.104E-02    3.68       2.6  T
   4    -19.0639246 -0.133380E-05  0.802E-04    3.68      33.3  T
   5    -19.0639246 -0.612342E-09  0.276E-04    3.68      96.8  T
   6    -19.0639246 -0.159535E-09  0.105E-04    3.68     254.0  T
     SCC iter.                  ...        0 min,  0.002 sec
     gradient                   ...        0 min,  0.001 sec
 * total energy  :   -18.7895364 Eh     change       -0.3860448E-05 Eh
   gradient norm :     0.0002968 Eh/α   predicted    -0.2397449E-05 ( -37.90%)
   displ. norm   :     0.0243291 α      lambda       -0.8480090E-06
   maximum displ.:     0.0208979 α      in ANC's #2, #1, #6, ...

   *** GEOMETRY OPTIMIZATION CONVERGED AFTER 30 ITERATIONS ***

------------------------------------------------------------------------
 total energy gain   :        -0.0076645 Eh       -4.8095 kcal/mol
 total RMSD          :         0.9439240 a0        0.4995 Å
 total power (kW/mol):        -0.6707715 (step) -162.2075 (real)
------------------------------------------------------------------------

 ANCopt (total)                0 d,  0 h,  0 min,  0.124 sec
 optimizer setup                ...        0 min,  0.000 sec (  0.094%)
 model hessian                  ...        0 min,  0.006 sec (  4.947%)
 ANC generation                 ...        0 min,  0.000 sec (  0.360%)
 coordinate transformation      ...        0 min,  0.000 sec (  0.232%)
 single point calculation       ...        0 min,  0.111 sec ( 89.583%)
 optimization log               ...        0 min,  0.002 sec (  1.594%)
 hessian update                 ...        0 min,  0.000 sec (  0.183%)
 rational function              ...        0 min,  0.002 sec (  1.805%)

================
 final structure:
================
14
 xtb: 6.5.1 (579679a)
C           -7.40248741143421        0.49318915299113       -0.06794609261114
C           -8.04528408646573        1.71968395319421        0.51361251433173
O           -7.54339461611683        2.47770583310823        1.29206325848686
C           -4.40772340508210        2.37375103177549       -0.08033514012052
C           -5.13031336031801        1.39151961471354       -0.58193228315171
C           -5.90475546034689        0.40652155237776        0.23756689014256
H           -5.55431007174617       -0.60453308214569        0.01255777754761
H           -5.74583501852474        0.60438928665004        1.29822482259994
H           -7.93263668950443       -0.36671449137135        0.35400073637182
H           -7.58462361102761        0.48398172201000       -1.14556714739942
H           -9.08846778571356        1.86871596684020        0.16312779729296
H           -3.86965783070593        3.06466091823937       -0.70706015428724
H           -4.33134964796505        2.53119543096239        0.98247425129267
H           -5.20225100504872        1.25562311065459       -1.65455723049583
 
 Bond Distances (Angstroems)
 ---------------------------
C1-C2=1.5019         C1-C6=1.5310         C1-H9=1.0948         C1-H10=1.0929        C2-C1=1.5019         C2-O3=1.1969         
C2-H11=1.1105        O3-C2=1.1969         C4-C5=1.3185         C4-H12=1.0769        C4-H13=1.0771        C5-C4=1.3185         
C5-C6=1.4972         C5-H14=1.0836        C6-C1=1.5310         C6-C5=1.4972         C6-H7=1.0935         C6-H8=1.0906         
H7-C6=1.0935         H8-C6=1.0906         H9-C1=1.0948         H10-C1=1.0929        H11-C2=1.1105        H12-C4=1.0769        
H13-C4=1.0771        H14-C5=1.0836        
 C  H  Rav=1.0900 sigma=0.0103  Rmin=1.0769  Rmax=1.1105     8
 C  C  Rav=1.4622 sigma=0.0839  Rmin=1.3185  Rmax=1.5310     4
 O  C  Rav=1.1969 sigma=0.0000  Rmin=1.1969  Rmax=1.1969     1
 
 selected bond angles (degree)
 --------------------
C6-C1-C2=112.81                H9-C1-C2=106.56                H9-C1-C6=110.63                H10-C1-C2=108.50               
H10-C1-C6=111.06               H10-C1-H9=107.02               O3-C2-C1=126.13                H11-C2-C1=112.92               
H11-C2-O3=120.94               H12-C4-C5=122.03               H13-C4-C5=121.54               H13-C4-H12=116.43              
C6-C5-C4=124.43                H14-C5-C4=120.42               H14-C5-C6=115.15               C5-C6-C1=111.07                
H7-C6-C1=108.95                H7-C6-C5=109.26                H8-C6-C1=109.05                H8-C6-C5=109.73                
H8-C6-H7=108.73                
 
 selected dihedral angles (degree)
 ---------------------------------
O3-C2-C1-C6=349.76            O3-C2-C1-H9=111.35            O3-C2-C1-H10=226.28           H11-C2-C1-C6=170.98           
H11-C2-C1-H9=292.57           H11-C2-C1-H10= 47.49          C6-C5-C4-H12=180.36           C6-C5-C4-H13=359.88           
H14-C5-C4-H12=359.88          H14-C5-C4-H13=179.40          C5-C6-C1-C2=286.43            C5-C6-C1-H9=167.18            
C5-C6-C1-H10= 48.49           H7-C6-C1-C2=166.02            H7-C6-C1-H9= 46.77            H7-C6-C1-H10=288.08           
H8-C6-C1-C2= 47.48            H8-C6-C1-H9=288.23            H8-C6-C1-H10=169.54           C1-C6-C5-C4=118.44            
C1-C6-C5-H14=298.90           H7-C6-C5-C4=238.67            H7-C6-C5-H14= 59.12           H8-C6-C5-C4=357.80            
H8-C6-C5-H14=178.25           
           -------------------------------------------------
          |                Final Singlepoint                |
           -------------------------------------------------

          ...................................................
          :                      SETUP                      :
          :.................................................:
          :  # basis functions                  32          :
          :  # atomic orbitals                  32          :
          :  # shells                           20          :
          :  # electrons                        34          :
          :  max. iterations                   250          :
          :  Hamiltonian                  GFN2-xTB          :
          :  restarted?                      false          :
          :  GBSA solvation                  false          :
          :  PC potential                    false          :
          :  electronic temp.          300.0000000     K    :
          :  accuracy                    1.0000000          :
          :  -> integral cutoff          0.2500000E+02      :
          :  -> integral neglect         0.1000000E-07      :
          :  -> SCF convergence          0.1000000E-05 Eh   :
          :  -> wf. convergence          0.1000000E-03 e    :
          :  Broyden damping             0.4000000          :
          ...................................................

 iter      E             dE          RMSdq      gap      omega  full diag
   1    -19.0639246 -0.190639E+02  0.486E-05    3.68       0.0  T
   2    -19.0639246 -0.422062E-11  0.308E-05    3.68     866.5  T
   3    -19.0639246 -0.792255E-12  0.195E-05    3.68    1373.8  T

   *** convergence criteria satisfied after 3 iterations ***

         #    Occupation            Energy/Eh            Energy/eV
      -------------------------------------------------------------
         1        2.0000           -0.7195060             -19.5788
       ...           ...                  ...                  ...
        11        2.0000           -0.4943211             -13.4512
        12        2.0000           -0.4902322             -13.3399
        13        2.0000           -0.4627155             -12.5911
        14        2.0000           -0.4459165             -12.1340
        15        2.0000           -0.4288308             -11.6691
        16        2.0000           -0.4104658             -11.1693
        17        2.0000           -0.3969988             -10.8029 (HOMO)
        18                         -0.2618399              -7.1250 (LUMO)
        19                         -0.2007562              -5.4629
        20                          0.0692016               1.8831
        21                          0.1010048               2.7485
        22                          0.1211995               3.2980
       ...                                ...                  ...
        32                          0.6303427              17.1525
      -------------------------------------------------------------
                  HL-Gap            0.1351590 Eh            3.6779 eV
             Fermi-level           -0.3294193 Eh           -8.9640 eV

 SCC (total)                   0 d,  0 h,  0 min,  0.003 sec
 SCC setup                      ...        0 min,  0.000 sec (  2.384%)
 Dispersion                     ...        0 min,  0.000 sec (  1.129%)
 classical contributions        ...        0 min,  0.000 sec (  0.395%)
 integral evaluation            ...        0 min,  0.001 sec ( 17.851%)
 iterations                     ...        0 min,  0.001 sec ( 34.573%)
 molecular gradient             ...        0 min,  0.001 sec ( 40.399%)
 printout                       ...        0 min,  0.000 sec (  2.258%)

         :::::::::::::::::::::::::::::::::::::::::::::::::::::
         ::                     SUMMARY                     ::
         :::::::::::::::::::::::::::::::::::::::::::::::::::::
         :: total energy             -18.789536397723 Eh    ::
         :: gradient norm              0.000296677004 Eh/a0 ::
         :: HOMO-LUMO gap              3.677862689030 eV    ::
         ::.................................................::
         :: SCC energy               -19.063924643457 Eh    ::
         :: -> isotropic ES            0.022551638916 Eh    ::
         :: -> anisotropic ES          0.003310055475 Eh    ::
         :: -> anisotropic XC          0.010677910184 Eh    ::
         :: -> dispersion             -0.008018653580 Eh    ::
         :: repulsion energy           0.274371884194 Eh    ::
         :: add. restraining           0.000000000000 Eh    ::
         :: total charge              -0.000000000000 e     ::
         :::::::::::::::::::::::::::::::::::::::::::::::::::::

           -------------------------------------------------
          |                Property Printout                |
           -------------------------------------------------

    * Orbital Energies and Occupations

         #    Occupation            Energy/Eh            Energy/eV
      -------------------------------------------------------------
         1        2.0000           -0.7195060             -19.5788
       ...           ...                  ...                  ...
         5        2.0000           -0.5803713             -15.7927
         6        2.0000           -0.5641799             -15.3521
         7        2.0000           -0.5544784             -15.0881
         8        2.0000           -0.5405131             -14.7081
         9        2.0000           -0.5245004             -14.2724
        10        2.0000           -0.5011299             -13.6364
        11        2.0000           -0.4943211             -13.4512
        12        2.0000           -0.4902322             -13.3399
        13        2.0000           -0.4627155             -12.5911
        14        2.0000           -0.4459165             -12.1340
        15        2.0000           -0.4288308             -11.6691
        16        2.0000           -0.4104658             -11.1693
        17        2.0000           -0.3969988             -10.8029 (HOMO)
        18                         -0.2618399              -7.1250 (LUMO)
        19                         -0.2007562              -5.4629
        20                          0.0692016               1.8831
        21                          0.1010048               2.7485
        22                          0.1211995               3.2980
        23                          0.1385439               3.7700
        24                          0.1505654               4.0971
        25                          0.1706524               4.6437
        26                          0.2004938               5.4557
        27                          0.2155799               5.8662
        28                          0.2360347               6.4228
       ...                                ...                  ...
        32                          0.6303427              17.1525
      -------------------------------------------------------------
                  HL-Gap            0.1351590 Eh            3.6779 eV
             Fermi-level           -0.3294193 Eh           -8.9640 eV

     #   Z          covCN         q      C6AA      α(0)
     1   6 C        3.804    -0.080    22.024     6.681
     2   6 C        2.756     0.216    23.432     7.927
     3   8 O        0.856    -0.316    20.065     6.006
     4   6 C        2.837    -0.089    30.219     9.009
     5   6 C        2.887    -0.028    28.687     8.781
     6   6 C        3.807    -0.056    21.577     6.613
     7   1 H        0.924     0.042     2.428     2.437
     8   1 H        0.924     0.060     2.201     2.320
     9   1 H        0.924     0.067     2.121     2.278
    10   1 H        0.924     0.061     2.182     2.310
    11   1 H        0.922     0.012     2.861     2.645
    12   1 H        0.926     0.036     2.500     2.472
    13   1 H        0.926     0.047     2.354     2.399
    14   1 H        0.925     0.027     2.631     2.537

 Mol. C6AA /au·bohr⁶  :       1748.835403
 Mol. C8AA /au·bohr⁸  :      38978.413871
 Mol. α(0) /au        :         64.413533


Wiberg/Mayer (AO) data.
largest (>0.10) Wiberg bond orders for each atom

 ---------------------------------------------------------------------------
     #   Z sym  total        # sym  WBO       # sym  WBO       # sym  WBO
 ---------------------------------------------------------------------------
     1   6 C    3.997 --     2 C    1.012     6 C    0.992    10 H    0.953
                             9 H    0.939
     2   6 C    3.917 --     3 O    1.932     1 C    1.012    11 H    0.930
     3   8 O    2.102 --     2 C    1.932
     4   6 C    3.992 --     5 C    1.984    12 H    0.977    13 H    0.975
     5   6 C    3.991 --     4 C    1.984     6 C    1.024    14 H    0.966
     6   6 C    3.994 --     5 C    1.024     1 C    0.992     8 H    0.972
                             7 H    0.964
     7   1 H    0.998 --     6 C    0.964
     8   1 H    0.996 --     6 C    0.972
     9   1 H    0.995 --     1 C    0.939
    10   1 H    0.996 --     1 C    0.953
    11   1 H    1.000 --     2 C    0.930
    12   1 H    0.998 --     4 C    0.977
    13   1 H    0.998 --     4 C    0.975
    14   1 H    0.999 --     5 C    0.966
 ---------------------------------------------------------------------------

Topologies differ in total number of bonds
Writing topology from bond orders to xtbtopo.mol

molecular dipole:
                 x           y           z       tot (Debye)
 q only:       -0.124      -0.791      -0.513
   full:       -0.301      -0.926      -0.672       3.008
molecular quadrupole (traceless):
                xx          xy          yy          xz          yz          zz
 q only:        7.151      16.262      -6.087      11.336      -4.243      -1.065
  q+dip:       11.805      19.251      -9.404      14.677      -5.276      -2.401
   full:       12.152      18.780      -9.445      14.200      -6.021      -2.707

           -------------------------------------------------
          |                Geometry Summary                 |
           -------------------------------------------------

      molecular mass/u    :       84.1166104
   center of mass at/Å    :       -6.4364096       1.4888124       0.2404011
  moments of inertia/u·Å² :        0.8940071E+02   0.1883844E+03   0.2469750E+03
rotational constants/cm⁻¹ :        0.1885626E+00   0.8948530E-01   0.6825643E-01

 * 10 selected distances

     #   Z          #   Z                                           value/Å
     2   6 C        3   8 O                                       1.1968609
     4   6 C        5   6 C                                       1.3185275
     1   6 C        6   6 C                                       1.5310294 (max)
     6   6 C        7   1 H                                       1.0934682
     6   6 C        8   1 H                                       1.0905975
     1   6 C        9   1 H                                       1.0947748
     1   6 C       10   1 H                                       1.0929436
     4   6 C       12   1 H                                       1.0768730 (min)
     4   6 C       13   1 H                                       1.0771192
     5   6 C       14   1 H                                       1.0835900

 * 3 distinct bonds (by element types)

   Z      Z             #   av. dist./Å        max./Å        min./Å
   1 H    6 C           7     1.0870523     1.0947748     1.0768730
   6 C    6 C           2     1.4247784     1.5310294     1.3185275
   6 C    8 O           1     1.1968609     1.1968609     1.1968609


optimized geometry written to: xtbopt.xyz


           -------------------------------------------------
          | TOTAL ENERGY              -18.789536397723 Eh   |
          | GRADIENT NORM               0.000296677004 Eh/α |
          | HOMO-LUMO GAP               3.677862689030 eV   |
           -------------------------------------------------

------------------------------------------------------------------------
 * finished run on 2023/06/13 at 16:46:11.914     
------------------------------------------------------------------------
 total:
 * wall-time:     0 d,  0 h,  0 min,  0.184 sec
 *  cpu-time:     0 d,  0 h,  0 min,  0.313 sec
 * ratio c/w:     1.701 speedup
 SCF:
 * wall-time:     0 d,  0 h,  0 min,  0.009 sec
 *  cpu-time:     0 d,  0 h,  0 min,  0.019 sec
 * ratio c/w:     2.001 speedup
 ANC optimizer:
 * wall-time:     0 d,  0 h,  0 min,  0.128 sec
 *  cpu-time:     0 d,  0 h,  0 min,  0.255 sec
 * ratio c/w:     2.000 speedup

