14
 energy: -18.781871896733 gnorm: 0.066463178216 xtb: 6.5.1 (579679a)
C           -7.38421000000000        0.61929000000000       -0.08393000000000
C           -7.95914000000000        1.78553000000000        0.67551000000000
O           -7.32534000000000        2.38477000000000        1.52764000000000
C           -4.73631000000000        2.49660000000000       -0.22446000000000
C           -4.91760000000000        1.20365000000000       -0.50913000000000
C           -5.90252000000000        0.28899000000000        0.18652000000000
H           -5.72775000000000       -0.71875000000000       -0.24973000000000
H           -5.69684000000000        0.21851000000000        1.27625000000000
H           -7.99446000000000       -0.25991000000000        0.21492000000000
H           -7.52273000000000        0.77315000000000       -1.17582000000000
H           -8.99348000000000        2.06163000000000        0.49947000000000
H           -3.99705000000000        3.06671000000000       -0.77793000000000
H           -5.28681000000000        3.00896000000000        0.54744000000000
H           -4.29885000000000        0.77056000000000       -1.29052000000000
14
 energy: -18.785900726409 gnorm: 0.024304611122 xtb: 6.5.1 (579679a)
C           -7.37373839003378        0.61521934444005       -0.08488118884300
C           -7.92261465036759        1.77210678590151        0.69729122484788
O           -7.31636718027701        2.38345368441894        1.54023277865430
C           -4.74374648521669        2.48791819825033       -0.22107721933637
C           -4.92282345716589        1.20883319426949       -0.50771925569108
C           -5.89770261905604        0.28098789463125        0.16818321568377
H           -5.72741002020681       -0.73587442655559       -0.21409991801750
H           -5.71449368489224        0.26616223781529        1.24970249989090
H           -7.99315810256028       -0.25032399201120        0.19336658402109
H           -7.53755917167540        0.78701292048644       -1.15677433523630
H           -8.95858083009132        2.05276538716277        0.46141783793472
H           -4.01790751557368        3.07094688323504       -0.76801352466215
H           -5.29630516819739        2.99216037438299        0.55125978948656
H           -4.32068272468587        0.76832151357270       -1.29265848873282
14
 energy: -18.786754109510 gnorm: 0.010529512382 xtb: 6.5.1 (579679a)
C           -7.36318293361189        0.61903635884612       -0.09359265864889
C           -7.88640938525396        1.78307094262114        0.69061159985338
O           -7.32562974602575        2.36059284321249        1.57727311882418
C           -4.75366246900665        2.47807773218803       -0.22807394395095
C           -4.93409937675418        1.20557819428882       -0.51808667610627
C           -5.89310900619467        0.27727688010138        0.17121902709000
H           -5.71355015032941       -0.74378737201580       -0.17030280823611
H           -5.72338189898909        0.31370100041991        1.25015146821518
H           -7.99689316567869       -0.23445624868025        0.16838535047314
H           -7.53367774070453        0.81508722025965       -1.15325387024556
H           -8.94030304543413        2.02502797045647        0.43818396440057
H           -4.03444948620547        3.07325842844719       -0.76454167333934
H           -5.29300158124184        2.97094614046570        0.56113574992072
H           -4.35174001456975        0.75627990938914       -1.31287864825005
14
 energy: -18.787082922882 gnorm: 0.013043468703 xtb: 6.5.1 (579679a)
C           -7.35888041263669        0.61706348580489       -0.09463821917045
C           -7.88924131872195        1.76027344568422        0.71611142027104
O           -7.33650136934296        2.34935601963285        1.59545053049033
C           -4.75017552946045        2.47021232629196       -0.22683754829617
C           -4.93740271286731        1.20075830492391       -0.52755930286245
C           -5.88909507446816        0.27776052056352        0.17922034832404
H           -5.70020671700807       -0.74641424810980       -0.14016004161897
H           -5.72548950490472        0.34109073664778        1.25801779827218
H           -7.99376170267830       -0.23894529503565        0.15157422385993
H           -7.52773289748608        0.83905798344115       -1.15010972609642
H           -8.92436359360025        2.04288265673479        0.39359403301384
H           -4.05243309394994        3.08131373011348       -0.77401089721554
H           -5.27884858376875        2.95267186037106        0.57784911451701
H           -4.37895748910638        0.75260847293583       -1.34227173348836
14
 energy: -18.787375614607 gnorm: 0.006192820921 xtb: 6.5.1 (579679a)
C           -7.35722498607653        0.61930421529664       -0.09791418946789
C           -7.89700239676588        1.76192195695307        0.70953099018655
O           -7.35054643082097        2.33610345462719        1.60579323620276
C           -4.74127487420454        2.46657740429395       -0.22576773622337
C           -4.93573318812422        1.19772190294047       -0.53206795398421
C           -5.88790805979352        0.28188726675259        0.18645129976785
H           -5.69707190663119       -0.74840701951652       -0.11974563440931
H           -5.72754467516737        0.35645421242358        1.26594019712644
H           -7.99450174730287       -0.23890728850114        0.14112191497372
H           -7.51189056888962        0.84465952564674       -1.15581448359937
H           -8.93090603486590        2.04119180414635        0.39595439904051
H           -4.05878199456871        3.08438286968647       -0.78693424757755
H           -5.25790820496737        2.94276676342273        0.59150619371877
H           -4.39479493182133        0.75403293182788       -1.36182398575490
14
 energy: -18.787665394451 gnorm: 0.007361016391 xtb: 6.5.1 (579679a)
C           -7.35338190627327        0.61951331481256       -0.10611458134648
C           -7.91035433152612        1.75617549088374        0.70182040456864
O           -7.37547081340566        2.30485267246187        1.62390136110199
C           -4.73163588306368        2.46059825555009       -0.23063990185236
C           -4.94627900805568        1.19654097708620       -0.55027146039648
C           -5.88538273879263        0.29298032486392        0.20387677233961
H           -5.68643067274645       -0.74893303637781       -0.06610333643092
H           -5.72953573387742        0.40590598573522        1.28223436100540
H           -7.99184631904544       -0.24407544596162        0.11486490068384
H           -7.48406781898597        0.85419272697811       -1.16645954825626
H           -8.93611818258353        2.04142497308203        0.38890432886126
H           -4.05974691271731        3.08421936687874       -0.79698478935140
H           -5.20675328946611        2.91718982379985        0.62683031229309
H           -4.44608638946073        0.75910457020710       -1.40962882321991
14
 energy: -18.787829689040 gnorm: 0.008363151958 xtb: 6.5.1 (579679a)
C           -7.35130377698822        0.61748035984468       -0.11200747935857
C           -7.91921863541083        1.74790236400116        0.69855869598862
O           -7.39339888324188        2.28046233633676        1.63536235967163
C           -4.70933611944414        2.45144995378862       -0.22053907986643
C           -4.95160799766344        1.19592678650335       -0.55626687466946
C           -5.88426772305892        0.30292100143213        0.21667869475382
H           -5.67700730190077       -0.74339317361753       -0.02622521929985
H           -5.73369348579935        0.44564316547862        1.29119620835613
H           -7.98868435757393       -0.25059151157580        0.09309580556701
H           -7.46799277828344        0.86020278273928       -1.17213103279083
H           -8.93743671530558        2.04180164265327        0.37743331482513
H           -4.06655960965438        3.08596038251773       -0.81168844120636
H           -5.16595839822254        2.89937285232002        0.64925519228802
H           -4.49662421745254        0.76455105757770       -1.44649214425881
14
 energy: -18.788041461835 gnorm: 0.005035785765 xtb: 6.5.1 (579679a)
C           -7.35280515558092        0.61152375506129       -0.11502974300649
C           -7.92967246541222        1.73630602495573        0.69712535445597
O           -7.40913375095138        2.26237360373096        1.63833729775644
C           -4.69346919530717        2.44838603065166       -0.21964575155439
C           -4.96350929163008        1.20170711061754       -0.56437832495253
C           -5.88517499094012        0.31342184569447        0.22321572042019
H           -5.66736216058697       -0.73381083388762        0.00357777074805
H           -5.73861365366838        0.48340082249619        1.29215843155292
H           -7.98376686315350       -0.26178373115274        0.08036000321077
H           -7.46448038815554        0.85702575163607       -1.17389922692992
H           -8.94100527477360        2.04002519544057        0.36585525805356
H           -4.05767516929752        3.08143991971955       -0.81599199571511
H           -5.11433411259698        2.88628280528481        0.67331637506474
H           -4.54208752794560        0.77339169975150       -1.46877116910414
14
 energy: -18.788220931817 gnorm: 0.003796788122 xtb: 6.5.1 (579679a)
C           -7.35421158928113        0.60340300074089       -0.11729150809558
C           -7.94167479511966        1.72171181480361        0.69557215525825
O           -7.43399244597573        2.24313437487810        1.64674430689803
C           -4.66924778368572        2.44506203749683       -0.21677861252683
C           -4.97700912804045        1.21084506374227       -0.57029362270911
C           -5.88558529148048        0.32459290193217        0.23053282643726
H           -5.65405228687491       -0.72211069769087        0.03566300193369
H           -5.74780648767916        0.52476350545825        1.29374438666463
H           -7.97608964450141       -0.27583052787669        0.07180335515591
H           -7.46631334920378        0.84998230025095       -1.17493249656885
H           -8.94619685617604        2.03471109363194        0.34299111274452
H           -4.03930948807910        3.07384118901715       -0.82017521077358
H           -5.04638843906122        2.87450293999517        0.69855330780485
H           -4.60521241484118        0.79108100362019       -1.49990300222311
14
 energy: -18.788357590035 gnorm: 0.006048460824 xtb: 6.5.1 (579679a)
C           -7.35904085536380        0.59378047830786       -0.11912109545574
C           -7.95753480001080        1.70968813558870        0.68780391545714
O           -7.45904209943132        2.23470221504836        1.63982787286814
C           -4.63792969223554        2.44136298122638       -0.20782870622518
C           -4.99205082534073        1.22311283478562       -0.57757915905641
C           -5.88769717835810        0.33741230112344        0.23587690990689
H           -5.64105204792236       -0.70813044425249        0.06027242655583
H           -5.75650990332406        0.55974875604293        1.29419304108229
H           -7.96910377386787       -0.29158501005535        0.07464304196650
H           -7.47528050107985        0.83305370387629       -1.17783628807220
H           -8.95838947337683        2.02263203451505        0.32677574818899
H           -4.01849308121107        3.06766169481711       -0.82633981867581
H           -4.96505623147034        2.86069148090709        0.73342515701552
H           -4.66590953700727        0.81555883806898       -1.52788304555587
14
 energy: -18.788517651543 gnorm: 0.006979120735 xtb: 6.5.1 (579679a)
C           -7.36609618168244        0.58300665779368       -0.11742705035955
C           -7.97638108201017        1.70026171965212        0.67770937244746
O           -7.48889383307142        2.23493977488753        1.62989804698119
C           -4.60104986875290        2.43738979268205       -0.19800855049709
C           -5.00584246259114        1.23982421401757       -0.58161894334000
C           -5.89049820196105        0.35162555399752        0.23825453798185
H           -5.62827109204822       -0.68995949402077        0.07124675400927
H           -5.76440397003040        0.58419648787798        1.29261142354925
H           -7.96211483107406       -0.30893344787610        0.09212407509983
H           -7.49147168640806        0.80575284357787       -1.17944419152055
H           -8.97697422583911        2.00482025165195        0.31057348191061
H           -3.98197181469699        3.05596992710395       -0.82381361471451
H           -4.88076508884891        2.84885135195141        0.75701921849409
H           -4.72835566098508        0.85194436670319       -1.55289456004173
14
 energy: -18.788331133550 gnorm: 0.018280285669 xtb: 6.5.1 (579679a)
C           -7.37572683918013        0.56322095179685       -0.11586320353503
C           -8.01323858036578        1.68412350744634        0.65403399181942
O           -7.55380577036174        2.23131514549528        1.61663190963542
C           -4.53263626818525        2.42490355148900       -0.17928409715024
C           -5.03304692667538        1.26922122703879       -0.59532263628728
C           -5.89330626800297        0.38006201517255        0.24939670763060
H           -5.59917507069195       -0.66107125043759        0.11120470787464
H           -5.77699601492692        0.64873897550207        1.29958152943060
H           -7.94989354501161       -0.33962310464479        0.11954095741751
H           -7.50759751873272        0.75540344059725       -1.18493482026432
H           -9.01122149239613        1.97412747624997        0.26366018791297
H           -3.93074875321532        3.04090607121828       -0.82891745062805
H           -4.69745657211186        2.80321066696333        0.83369343489922
H           -4.86824038014217        0.92515132611262       -1.62719121875526
14
 energy: -18.788750409096 gnorm: 0.007800753908 xtb: 6.5.1 (579679a)
C           -7.37626752314487        0.56974485609505       -0.11188042347755
C           -8.00318826702482        1.69635965173598        0.65797119880462
O           -7.53291211984615        2.25185696530453        1.61011407287389
C           -4.55222826965319        2.42647369788172       -0.18416252073072
C           -5.02206675836906        1.26548295843170       -0.59050869699392
C           -5.89439695279513        0.37136531156877        0.23753067289068
H           -5.61160833888030       -0.66941838409789        0.07334946730126
H           -5.76879374194508        0.61271468130334        1.29457576235120
H           -7.95615172295406       -0.32677538003436        0.13564741992601
H           -7.51449690276942        0.75607394081853       -1.18106072860122
H           -9.00893414493893        1.97645410509409        0.27888900767616
H           -3.94152869087869        3.04651565576039       -0.82296429497916
H           -4.75365132006278        2.80685088631249        0.80670300418606
H           -4.80686524673744        0.91599105382562       -1.58797394122714
14
 energy: -18.788833826860 gnorm: 0.007936603571 xtb: 6.5.1 (579679a)
C           -7.37767007126154        0.56540796769361       -0.10812011357447
C           -8.00825110977354        1.69796064424409        0.64975955019728
O           -7.53379574017843        2.26575519298850        1.58878828140951
C           -4.53842797494517        2.42471633755126       -0.17260185071238
C           -5.02947868390715        1.27253272132922       -0.59320255692496
C           -5.89507599105984        0.37471281464006        0.23874373876668
H           -5.61184203065304       -0.66420115544873        0.06961043496818
H           -5.76146365065058        0.60974548175965        1.29414674333147
H           -7.95258496552983       -0.33020320721030        0.15060902822630
H           -7.51811274050604        0.73727227987080       -1.17826769511621
H           -9.01580328423935        1.96992913982811        0.27481011664797
H           -3.92675715681079        3.04550738490543       -0.80584639585536
H           -4.73935167907496        2.79930450440166        0.81151772959486
H           -4.83447492140968        0.93124989344660       -1.60371701095867
14
 energy: -18.788971706600 gnorm: 0.005274019297 xtb: 6.5.1 (579679a)
C           -7.38194209947171        0.55719864056719       -0.10285770198069
C           -8.01798029845478        1.70039444346862        0.63503895344140
O           -7.54687187881138        2.28809814702161        1.56403800182549
C           -4.51847665849022        2.42051470358484       -0.16258042566444
C           -5.03969518670369        1.28655128835089       -0.59503884135106
C           -5.89661986985091        0.38214666832679        0.23823299353313
H           -5.60541931585674       -0.65343156849456        0.06231656563564
H           -5.75794923406445        0.61141158138797        1.29342046025769
H           -7.94908561005644       -0.33735592321388        0.17998662641657
H           -7.53025145281223        0.70394891315161       -1.17632919249009
H           -9.02938510168108        1.95630969805642        0.25634836161371
H           -3.91292252192597        3.04494334140146       -0.79949910561697
H           -4.67880713774251        2.77392487191646        0.84372256416581
H           -4.87768363407783        0.96503519447453       -1.62056925978600
14
 energy: -18.789060832153 gnorm: 0.008682737145 xtb: 6.5.1 (579679a)
C           -7.38848892105138        0.54347107825590       -0.09570256980695
C           -8.02719439049295        1.70599938450787        0.61131669827428
O           -7.55654844105211        2.32630881520944        1.52140282744987
C           -4.48948197996661        2.41183406215518       -0.14370547160085
C           -5.05943305035888        1.30932326517301       -0.60083551274428
C           -5.89914629315335        0.39037159399334        0.23438400424901
H           -5.59243935423146       -0.64350442420302        0.05073315601957
H           -5.75391226430643        0.61919972995324        1.29306324280972
H           -7.94575832184208       -0.34594617703432        0.22643320018764
H           -7.54957763186983        0.65088581277995       -1.17319080084278
H           -9.04511405215105        1.93664788188012        0.22906532706615
H           -3.89553382170704        3.04727991754949       -0.78211355887042
H           -4.59560433506051        2.72727253672167        0.88936214222266
H           -4.94485714275626        1.02054652305805       -1.64398268441338
14
 energy: -18.789148281535 gnorm: 0.010949356841 xtb: 6.5.1 (579679a)
C           -7.38714009662384        0.54152069165434       -0.09255260802434
C           -8.01819220456619        1.71446115515609        0.60375662217017
O           -7.53776191785231        2.34805144141355        1.49968006923402
C           -4.49938282583991        2.41070473788682       -0.14016604650099
C           -5.05949643503908        1.31117195723993       -0.59459831848659
C           -5.89803153235944        0.38466769072407        0.23264088041183
H           -5.59268258049611       -0.64745591190720        0.03578933814629
H           -5.74972745317417        0.60050947775319        1.29379910827506
H           -7.94803266202034       -0.34034488593661        0.23900135200256
H           -7.54992814212487        0.63930061115148       -1.16929928038661
H           -9.03899789779957        1.93891321158865        0.22652178709646
H           -3.90911273274817        3.05483552245495       -0.77292222006477
H           -4.60750745625195        2.71283414912776        0.89410487531770
H           -4.94709606310400        1.03052015169291       -1.63952555919054
14
 energy: -18.789256020382 gnorm: 0.004232137675 xtb: 6.5.1 (579679a)
C           -7.38952867107850        0.53366711288606       -0.08754348786283
C           -8.01498513224350        1.71914877208442        0.59233132426922
O           -7.52390194992586        2.36989481291618        1.47042905552384
C           -4.49350163887997        2.40885511288313       -0.12877189394375
C           -5.07153694306160        1.32046776149710       -0.59627642931404
C           -5.89877050824495        0.38353292295582        0.23071683836454
H           -5.59124157597294       -0.64457679894986        0.02390229937082
H           -5.74441479973773        0.58934397183230        1.29081131265967
H           -7.94793559491021       -0.34294263122280        0.25780915661499
H           -7.55633183851850        0.61590724875672       -1.16389684708994
H           -9.03746828406184        1.93873816774875        0.21890894654575
H           -3.91047453949948        3.06085254866526       -0.75905721049740
H           -4.59519103122517        2.69713410081079        0.90495339559465
H           -4.96780749263973        1.04966689713607       -1.63808646023526
14
 energy: -18.789332054670 gnorm: 0.009028598886 xtb: 6.5.1 (579679a)
C           -7.39503072441529        0.51512800662489       -0.07857077959187
C           -8.01466006724957        1.72726767436937        0.56209591381210
O           -7.50714161834813        2.41763517154658        1.40165632635857
C           -4.47246127077002        2.40097822885426       -0.10327449948635
C           -5.09430964252998        1.34311170677540       -0.59476646746374
C           -5.89993340558315        0.38519157662728        0.22893381753956
H           -5.57895933293887       -0.63583323847389        0.00808013680396
H           -5.74001127695895        0.58116009017165        1.28887897108396
H           -7.94421382072748       -0.35245131412978        0.30533691548909
H           -7.57377295401602        0.55701171426483       -1.15688693310086
H           -9.04182659456909        1.93042501427334        0.19648985608727
H           -3.90392811597417        3.06896036511507       -0.72838525096826
H           -4.53180273497870        2.64984976189334        0.94500568740902
H           -5.04503844094053        1.11125524208757       -1.65836369397216
14
 energy: -18.789391991585 gnorm: 0.003608818551 xtb: 6.5.1 (579679a)
C           -7.39418674122554        0.51474644471501       -0.08064189420266
C           -8.00781942551290        1.72739832721029        0.56090149181103
O           -7.49467624105303        2.41346064300864        1.39628585753871
C           -4.48115454382493        2.40108518742947       -0.10452547368351
C           -5.09542348605207        1.34072751552577       -0.59335402989694
C           -5.89947446993721        0.38056645263039        0.22845526402517
H           -5.57667857114952       -0.64135506386202        0.01215207506423
H           -5.74322075581314        0.58395177270502        1.28916144967452
H           -7.94565041528065       -0.35042582577534        0.30015299046672
H           -7.57227279280833        0.56122508064662       -1.15721366503716
H           -9.03441999588233        1.93694941209652        0.20079869885418
H           -3.91423500254879        3.07254240889295       -0.72591610327170
H           -4.54074915277559        2.64842272008734        0.94314112195872
H           -5.04312840613591        1.11039492468927       -1.65316778330101
14
 energy: -18.789428075380 gnorm: 0.004830462662 xtb: 6.5.1 (579679a)
C           -7.39551939827651        0.50783323278620       -0.07573407534457
C           -8.00280715190855        1.73392354251578        0.54659584151305
O           -7.48166983352450        2.44206745701823        1.36070034485952
C           -4.47870892972769        2.39738597099026       -0.09381535254907
C           -5.10385017945768        1.34902064897250       -0.59087580936236
C           -5.89936226520620        0.37713633481089        0.22543272075431
H           -5.57340895784812       -0.64112308769956       -0.00167066041869
H           -5.74020366731385        0.57176385500413        1.28736118566680
H           -7.94536462258201       -0.35049195789991        0.32457529818569
H           -7.58092012529552        0.53497884132424       -1.15274892626930
H           -9.03475577218060        1.93379660839683        0.19144726648483
H           -3.92169455075623        3.08028719630602       -0.71337918549165
H           -4.51710321664818        2.62437604293877        0.96150455616959
H           -5.06772132927432        1.13873531453553       -1.65316320419782
14
 energy: -18.789458589525 gnorm: 0.001335191553 xtb: 6.5.1 (579679a)
C           -7.39427078949163        0.50879207258257       -0.07540830807897
C           -8.00402144818814        1.73448423134485        0.54359398922381
O           -7.48698287970147        2.44304827868828        1.35808767695098
C           -4.47787465697862        2.39772881228608       -0.09321609418770
C           -5.10096302473979        1.34686209665124       -0.58914009656826
C           -5.89842957866552        0.37703672069609        0.22764253832933
H           -5.57476153085949       -0.64161196008474        0.00048445764525
H           -5.73797143238913        0.57009777660068        1.28919193758661
H           -7.94537621184575       -0.34869508900775        0.32417038152114
H           -7.57789934827466        0.53460422283834       -1.15242262146941
H           -9.03724075012264        1.93114769711958        0.18951793643138
H           -3.92454479242153        3.08195615606381       -0.71389431926482
H           -4.50575120573594        2.61988201929172        0.96104080972472
H           -5.07700235058563        1.14435696492917       -1.65341828784376
14
 energy: -18.789465243299 gnorm: 0.002135512445 xtb: 6.5.1 (579679a)
C           -7.39321515883833        0.50861312259526       -0.07383875052384
C           -8.00768611652111        1.73187191441590        0.54367040912654
O           -7.49383283008935        2.44671311947360        1.35379499456885
C           -4.47490604036957        2.39703917992052       -0.09192784928053
C           -5.10333274618060        1.34873201115601       -0.58752378128342
C           -5.89755711567243        0.37744293297717        0.23033585098472
H           -5.57530269550965       -0.64128287439323        0.00164705617142
H           -5.73506172848806        0.56832420375108        1.29156889891065
H           -7.94393202248365       -0.34920624880871        0.32490770342011
H           -7.57460625603992        0.53280495320939       -1.15111502188909
H           -9.03842555980516        1.92970194960903        0.18112285910306
H           -3.92575552738901        3.08221459894262       -0.71497360085979
H           -4.48877478785796        2.61338959707362        0.96199130481051
H           -5.09070141475513        1.15333154007765       -1.65343007325887
14
 energy: -18.789475072962 gnorm: 0.001749628072 xtb: 6.5.1 (579679a)
C           -7.39286502976362        0.50863888295821       -0.07370046446229
C           -8.00832757920406        1.73302792281918        0.53997206397364
O           -7.49805954781651        2.44871778222099        1.35168034278388
C           -4.47124828732883        2.39552083372495       -0.09099274061405
C           -5.10536225020426        1.35059598580361       -0.58659156002247
C           -5.89740641128799        0.37813876550614        0.23176296738925
H           -5.57505770913830       -0.64056921869374        0.00266777689022
H           -5.73454897146753        0.56860982130197        1.29290858116898
H           -7.94408273686939       -0.34886534165225        0.32513090906227
H           -7.57215918333532        0.53123020423012       -1.15134547569736
H           -9.04175689415625        1.92471133262422        0.18073290040407
H           -3.92529837783961        3.08160915014015       -0.71598238574625
H           -4.47838816066849        2.60965827220202        0.96314595050315
H           -5.09852886091979        1.15866560681435       -1.65315886563273
14
 energy: -18.789486693931 gnorm: 0.001020884060 xtb: 6.5.1 (579679a)
C           -7.39424296340878        0.50632595615046       -0.07296883466930
C           -8.01071143345071        1.73253085483546        0.53611707249255
O           -7.50172277911184        2.45205767839854        1.34602960787500
C           -4.46405987770725        2.39288580074707       -0.08930579569345
C           -5.10875343425560        1.35516930292824       -0.58567377740981
C           -5.89820806704308        0.38046390453714        0.23226743493852
H           -5.57187725721944       -0.63721213318027        0.00322567550641
H           -5.73630916418524        0.57183183370551        1.29356652396133
H           -7.94465567642461       -0.35101387646271        0.32793791356011
H           -7.57284796092746        0.52626671834677       -1.15096039458361
H           -9.04587496180222        1.91873790431584        0.17859599865468
H           -3.92140129352304        3.08007210689161       -0.71646834634002
H           -4.46243938815211        2.60304104797173        0.96689647017409
H           -5.10998574278857        1.16853290081450       -1.65302954846620
14
 energy: -18.789498968579 gnorm: 0.001309719033 xtb: 6.5.1 (579679a)
C           -7.39607035615224        0.50321562283916       -0.07241440140206
C           -8.01510443454815        1.73040102011649        0.53259483425324
O           -7.50560448950526        2.45530651393802        1.33762791132961
C           -4.45620478751636        2.39075356105733       -0.08764010212321
C           -5.11343003810934        1.36156889409816       -0.58504671352678
C           -5.89955140901642        0.38408452063473        0.23274692278638
H           -5.56747279491335       -0.63201273042161        0.00426384950313
H           -5.73910476852686        0.57696339209984        1.29421553796231
H           -7.94335811874502       -0.35446449865516        0.33206493632401
H           -7.57596190933731        0.51916716279719       -1.15042535856960