14
 energy: -18.789536397723 gnorm: 0.000296677004 xtb: 6.5.1 (579679a)
C           -7.40248741143421        0.49318915299113       -0.06794609261114
C           -8.04528408646573        1.71968395319421        0.51361251433173
O           -7.54339461611683        2.47770583310823        1.29206325848686
C           -4.40772340508210        2.37375103177549       -0.08033514012052
C           -5.13031336031801        1.39151961471354       -0.58193228315171
C           -5.90475546034689        0.40652155237776        0.23756689014256
H           -5.55431007174617       -0.60453308214569        0.01255777754761
H           -5.74583501852474        0.60438928665004        1.29822482259994
H           -7.93263668950443       -0.36671449137135        0.35400073637182
H           -7.58462361102761        0.48398172201000       -1.14556714739942
H           -9.08846778571356        1.86871596684020        0.16312779729296
H           -3.86965783070593        3.06466091823937       -0.70706015428724
H           -4.33134964796505        2.53119543096239        0.98247425129267
H           -5.20225100504872        1.25562311065459       -1.65455723049583
