
                                 *****************
                                 * O   R   C   A *
                                 *****************

                                            #,                                       
                                            ###                                      
                                            ####                                     
                                            #####                                    
                                            ######                                   
                                           ########,                                 
                                     ,,################,,,,,                         
                               ,,#################################,,                 
                          ,,##########################################,,             
                       ,#########################################, ''#####,          
                    ,#############################################,,   '####,        
                  ,##################################################,,,,####,       
                ,###########''''           ''''###############################       
              ,#####''   ,,,,##########,,,,          '''####'''          '####       
            ,##' ,,,,###########################,,,                        '##       
           ' ,,###''''                  '''############,,,                           
         ,,##''                                '''############,,,,        ,,,,,,###''
      ,#''                                            '''#######################'''  
     '                                                          ''''####''''         
             ,#######,   #######,   ,#######,      ##                                
            ,#'     '#,  ##    ##  ,#'     '#,    #''#        ######   ,####,        
            ##       ##  ##   ,#'  ##            #'  '#       #        #'  '#        
            ##       ##  #######   ##           ,######,      #####,   #    #        
            '#,     ,#'  ##    ##  '#,     ,#' ,#      #,         ##   #,  ,#        
             '#######'   ##     ##  '#######'  #'      '#     #####' # '####'        



                  #######################################################
                  #                        -***-                        #
                  #          Department of theory and spectroscopy      #
                  #    Directorship and core code : Frank Neese         #
                  #        Max Planck Institute fuer Kohlenforschung    #
                  #                Kaiser Wilhelm Platz 1               #
                  #                 D-45470 Muelheim/Ruhr               #
                  #                      Germany                        #
                  #                                                     #
                  #                  All rights reserved                #
                  #                        -***-                        #
                  #######################################################


                         Program Version 5.0.2 -  RELEASE  -


 With contributions from (in alphabetic order):
   Daniel Aravena         : Magnetic Suceptibility
   Michael Atanasov       : Ab Initio Ligand Field Theory (pilot matlab implementation)
   Alexander A. Auer      : GIAO ZORA, VPT2 properties, NMR spectrum
   Ute Becker             : Parallelization
   Giovanni Bistoni       : ED, misc. LED, open-shell LED, HFLD
   Martin Brehm           : Molecular dynamics
   Dmytro Bykov           : SCF Hessian
   Vijay G. Chilkuri      : MRCI spin determinant printing, contributions to CSF-ICE
   Dipayan Datta          : RHF DLPNO-CCSD density
   Achintya Kumar Dutta   : EOM-CC, STEOM-CC
   Dmitry Ganyushin       : Spin-Orbit,Spin-Spin,Magnetic field MRCI
   Miquel Garcia          : C-PCM and meta-GGA Hessian, CC/C-PCM, Gaussian charge scheme
   Yang Guo               : DLPNO-NEVPT2, F12-NEVPT2, CIM, IAO-localization
   Andreas Hansen         : Spin unrestricted coupled pair/coupled cluster methods
   Benjamin Helmich-Paris : MC-RPA, TRAH-SCF, COSX integrals
   Lee Huntington         : MR-EOM, pCC
   Robert Izsak           : Overlap fitted RIJCOSX, COSX-SCS-MP3, EOM
   Marcus Kettner         : VPT2
   Christian Kollmar      : KDIIS, OOCD, Brueckner-CCSD(T), CCSD density, CASPT2, CASPT2-K
   Simone Kossmann        : Meta GGA functionals, TD-DFT gradient, OOMP2, MP2 Hessian
   Martin Krupicka        : Initial AUTO-CI
   Lucas Lang             : DCDCAS
   Marvin Lechner         : AUTO-CI (C++ implementation), FIC-MRCC
   Dagmar Lenk            : GEPOL surface, SMD
   Dimitrios Liakos       : Extrapolation schemes; Compound Job, initial MDCI parallelization
   Dimitrios Manganas     : Further ROCIS development; embedding schemes
   Dimitrios Pantazis     : SARC Basis sets
   Anastasios Papadopoulos: AUTO-CI, single reference methods and gradients
   Taras Petrenko         : DFT Hessian,TD-DFT gradient, ASA, ECA, R-Raman, ABS, FL, XAS/XES, NRVS
   Peter Pinski           : DLPNO-MP2, DLPNO-MP2 Gradient
   Christoph Reimann      : Effective Core Potentials
   Marius Retegan         : Local ZFS, SOC
   Christoph Riplinger    : Optimizer, TS searches, QM/MM, DLPNO-CCSD(T), (RO)-DLPNO pert. Triples
   Tobias Risthaus        : Range-separated hybrids, TD-DFT gradient, RPA, STAB
   Michael Roemelt        : Original ROCIS implementation
   Masaaki Saitow         : Open-shell DLPNO-CCSD energy and density
   Barbara Sandhoefer     : DKH picture change effects
   Avijit Sen             : IP-ROCIS
   Kantharuban Sivalingam : CASSCF convergence, NEVPT2, FIC-MRCI
   Bernardo de Souza      : ESD, SOC TD-DFT
   Georgi Stoychev        : AutoAux, RI-MP2 NMR, DLPNO-MP2 response
   Willem Van den Heuvel  : Paramagnetic NMR
   Boris Wezisla          : Elementary symmetry handling
   Frank Wennmohs         : Technical directorship


 We gratefully acknowledge several colleagues who have allowed us to
 interface, adapt or use parts of their codes:
   Stefan Grimme, W. Hujo, H. Kruse, P. Pracht,  : VdW corrections, initial TS optimization,
                  C. Bannwarth, S. Ehlert          DFT functionals, gCP, sTDA/sTD-DF
   Ed Valeev, F. Pavosevic, A. Kumar             : LibInt (2-el integral package), F12 methods
   Garnet Chan, S. Sharma, J. Yang, R. Olivares  : DMRG
   Ulf Ekstrom                                   : XCFun DFT Library
   Mihaly Kallay                                 : mrcc  (arbitrary order and MRCC methods)
   Jiri Pittner, Ondrej Demel                    : Mk-CCSD
   Frank Weinhold                                : gennbo (NPA and NBO analysis)
   Christopher J. Cramer and Donald G. Truhlar   : smd solvation model
   Lars Goerigk                                  : TD-DFT with DH, B97 family of functionals
   V. Asgeirsson, H. Jonsson                     : NEB implementation
   FAccTs GmbH                                   : IRC, NEB, NEB-TS, DLPNO-Multilevel, CI-OPT
                                                   MM, QMMM, 2- and 3-layer-ONIOM, Crystal-QMMM,
                                                   LR-CPCM, SF, NACMEs, symmetry and pop. for TD-DFT,
                                                   nearIR, NL-DFT gradient (VV10), updates on ESD,
                                                   ML-optimized integration grids
   S Lehtola, MJT Oliveira, MAL Marques          : LibXC Library
   Liviu Ungur et al                             : ANISO software


 Your calculation uses the libint2 library for the computation of 2-el integrals
 For citations please refer to: http://libint.valeyev.net

 Your ORCA version has been built with support for libXC version: 5.1.0
 For citations please refer to: https://tddft.org/programs/libxc/

 This ORCA versions uses:
   CBLAS   interface :  Fast vector & matrix operations
   LAPACKE interface :  Fast linear algebra routines
   SCALAPACK package :  Parallel linear algebra routines
   Shared memory     :  Shared parallel matrices
   BLAS/LAPACK       :  OpenBLAS 0.3.15  USE64BITINT DYNAMIC_ARCH NO_AFFINITY Haswell SINGLE_THREADED
        Core in use  :  Haswell
   Copyright (c) 2011-2014, The OpenBLAS Project




***************************************
The coordinates will be read from file: D.xyz
***************************************


Your calculation utilizes the geometrical counterpoise correction gCP
Please cite in your paper:
H.Kruse, S. Grimme J.Chem.Phys., 136, (2012), 154101 
   

Your calculation utilizes the atom-pairwise dispersion correction
with the Becke-Johnson damping scheme (D3BJ)
Cite in your paper:
S.Grimme, S.Ehrlich, L.Goerigk, J Comput Chem, (2011), 32, 1456–1465 
S.Grimme, J.Antony, S.Ehrlich and H.Krieg, J.Chem.Phys., 132, (2010), 154104 
   

Your calculation employs the composite approach PBEh-3c.
Please cite in your paper:
S. Grimme, J. G. Brandenburg, C. Bannwarth, A. Hansen J.Chem.Phys., 143, (2015), 054107 
   

================================================================================

----- Orbital basis set information -----
Your calculation utilizes the basis: def2-mSVP

----- AuxJ basis set information -----
Your calculation utilizes the auxiliary basis: def2/J
   F. Weigend, Phys. Chem. Chem. Phys. 8, 1057 (2006).

================================================================================
                                        WARNINGS
                       Please study these warnings very carefully!
================================================================================


WARNING: Geometry Optimization
  ===> : Switching off AutoStart
         For restart on a previous wavefunction, please use MOREAD

INFO   : the flag for use of the SHARK integral package has been found!

================================================================================
                                       INPUT FILE
================================================================================
NAME = OPT_D.inp
|  1> ! PBEh-3c Opt
|  2> 
|  3> *xyzfile 0 1 D.xyz
|  4> 
|  5>                          ****END OF INPUT****
================================================================================

                       *****************************
                       * Geometry Optimization Run *
                       *****************************

Geometry optimization settings:
Update method            Update   .... BFGS
Choice of coordinates    CoordSys .... Z-matrix Internals
Initial Hessian          InHess   .... Almoef's Model

Convergence Tolerances:
Energy Change            TolE     ....  5.0000e-06 Eh
Max. Gradient            TolMAXG  ....  3.0000e-04 Eh/bohr
RMS Gradient             TolRMSG  ....  1.0000e-04 Eh/bohr
Max. Displacement        TolMAXD  ....  4.0000e-03 bohr
RMS Displacement         TolRMSD  ....  2.0000e-03 bohr
Strict Convergence                ....  False
------------------------------------------------------------------------------
                        ORCA OPTIMIZATION COORDINATE SETUP
------------------------------------------------------------------------------

The optimization will be done in new redundant internal coordinates
Making redundant internal coordinates   ...  (new redundants) done
Evaluating the initial hessian          ...  (Almloef) done
Evaluating the coordinates              ...  done
Calculating the B-matrix                .... done
Calculating the G-matrix                .... done
Diagonalizing the G-matrix              .... done
The first mode is                       ....    3
The number of degrees of freedom        ....   18

    -----------------------------------------------------------------
                    Redundant Internal Coordinates


    -----------------------------------------------------------------
         Definition                    Initial Value    Approx d2E/dq
    -----------------------------------------------------------------
      1. B(C   1,C   0)                  1.4548         0.492361   
      2. B(C   2,C   1)                  1.3464         0.733298   
      3. B(C   3,C   2)                  1.4526         0.496358   
      4. B(H   4,C   1)                  1.0800         0.373540   
      5. B(H   5,C   2)                  1.0835         0.368858   
      6. B(N   6,C   3)                  1.1596         1.304555   
      7. B(N   7,C   0)                  1.1604         1.300672   
      8. L(C   1,C   0,N   7,H   4, 1) 177.3100         0.473136   
      9. L(C   1,C   0,N   7,H   4, 2) 179.5137         0.473136   
     10. A(C   0,C   1,H   4)          116.4916         0.341579   
     11. A(C   0,C   1,C   2)          124.4749         0.429206   
     12. A(C   2,C   1,H   4)          119.0329         0.365410   
     13. A(C   3,C   2,H   5)          117.2668         0.341321   
     14. A(C   1,C   2,H   5)          121.6947         0.364622   
     15. A(C   1,C   2,C   3)          121.0383         0.429829   
     16. L(C   2,C   3,N   6,C   1, 1) 180.7442         0.474100   
     17. L(C   2,C   3,N   6,C   1, 2) 180.0000         0.474100   
     18. D(C   3,C   2,C   1,H   4)     -0.2643         0.038185   
     19. D(H   5,C   2,C   1,C   0)     -0.3881         0.038185   
     20. D(H   5,C   2,C   1,H   4)    179.9204         0.038185   
     21. D(C   3,C   2,C   1,C   0)    179.4271         0.038185   
    -----------------------------------------------------------------

Number of atoms                         .... 8
Number of degrees of freedom            .... 21

         *************************************************************
         *                GEOMETRY OPTIMIZATION CYCLE   1            *
         *************************************************************
---------------------------------
CARTESIAN COORDINATES (ANGSTROEM)
---------------------------------
  C     -7.104600    3.976170    2.714570
  C     -5.909080    4.716790    2.342030
  C     -4.782170    4.155000    1.865280
  C     -3.634240    4.968780    1.504460
  H     -5.950940    5.789630    2.459150
  H     -4.692690    3.083530    1.731760
  N     -2.710410    5.605930    1.212480
  N     -8.083430    3.433130    3.020440

----------------------------
CARTESIAN COORDINATES (A.U.)
----------------------------
  NO LB      ZA    FRAG     MASS         X           Y           Z
   0 C     6.0000    0    12.011  -13.425748    7.513872    5.129794
   1 C     6.0000    0    12.011  -11.166543    8.913441    4.425795
   2 C     6.0000    0    12.011   -9.036992    7.851812    3.524868
   3 C     6.0000    0    12.011   -6.867718    9.389633    2.843017
   4 H     1.0000    0     1.008  -11.245647   10.940815    4.647120
   5 H     1.0000    0     1.008   -8.867899    5.827027    3.272552
   6 N     7.0000    0    14.007   -5.121933   10.593672    2.291255
   7 N     7.0000    0    14.007  -15.275469    6.487675    5.707804

--------------------------------
INTERNAL COORDINATES (ANGSTROEM)
--------------------------------
 C      0   0   0     0.000000000000     0.00000000     0.00000000
 C      1   0   0     1.454844358136     0.00000000     0.00000000
 C      2   1   0     1.346411792395   124.47485180     0.00000000
 C      3   2   1     1.452643192838   121.03831872   179.42713661
 H      2   1   3     1.080025471737   116.49159176   179.69857383
 H      3   2   1     1.083458454072   121.69466881   359.61187220
 N      4   3   2     1.159600927820   179.25584959   179.99981093
 N      1   2   3     1.160412455724   177.30040106   185.34727409

---------------------------
INTERNAL COORDINATES (A.U.)
---------------------------
 C      0   0   0     0.000000000000     0.00000000     0.00000000
 C      1   0   0     2.749257404357     0.00000000     0.00000000
 C      2   1   0     2.544349551108   124.47485180     0.00000000
 C      3   2   1     2.745097804770   121.03831872   179.42713661
 H      2   1   3     2.040952359241   116.49159176   179.69857383
 H      3   2   1     2.047439755678   121.69466881   359.61187220
 N      4   3   2     2.191328178220   179.25584959   179.99981093
 N      1   2   3     2.192861743710   177.30040106   185.34727409

---------------------
BASIS SET INFORMATION
---------------------
There are 3 groups of distinct atoms

 Group   1 Type C   : 8s4p1d contracted to 4s2p1d pattern {5111/31/1}
 Group   2 Type H   : 4s contracted to 2s pattern {31}
 Group   3 Type N   : 8s4p1d contracted to 4s2p1d pattern {5111/31/1}

Atom   0C    basis set group =>   1
Atom   1C    basis set group =>   1
Atom   2C    basis set group =>   1
Atom   3C    basis set group =>   1
Atom   4H    basis set group =>   2
Atom   5H    basis set group =>   2
Atom   6N    basis set group =>   3
Atom   7N    basis set group =>   3
---------------------------------
AUXILIARY/J BASIS SET INFORMATION
---------------------------------
There are 3 groups of distinct atoms

 Group   1 Type C   : 12s5p4d2f1g contracted to 6s4p3d1f1g pattern {711111/2111/211/2/1}
 Group   2 Type H   : 5s2p1d contracted to 3s1p1d pattern {311/2/1}
 Group   3 Type N   : 12s5p4d2f1g contracted to 6s4p3d1f1g pattern {711111/2111/211/2/1}

Atom   0C    basis set group =>   1
Atom   1C    basis set group =>   1
Atom   2C    basis set group =>   1
Atom   3C    basis set group =>   1
Atom   4H    basis set group =>   2
Atom   5H    basis set group =>   2
Atom   6N    basis set group =>   3
Atom   7N    basis set group =>   3
------------------------------------------------------------------------------
                           ORCA GTO INTEGRAL CALCULATION
                           -- RI-GTO INTEGRALS CHOSEN --
------------------------------------------------------------------------------
------------------------------------------------------------------------------
                   ___                                                        
                  /   \      - P O W E R E D   B Y -                         
                 /     \                                                     
                 |  |  |   _    _      __       _____    __    __             
                 |  |  |  | |  | |    /  \     |  _  \  |  |  /  |          
                  \  \/   | |  | |   /    \    | | | |  |  | /  /          
                 / \  \   | |__| |  /  /\  \   | |_| |  |  |/  /          
                |  |  |   |  __  | /  /__\  \  |    /   |      \           
                |  |  |   | |  | | |   __   |  |    \   |  |\   \          
                \     /   | |  | | |  |  |  |  | |\  \  |  | \   \       
                 \___/    |_|  |_| |__|  |__|  |_| \__\ |__|  \__/        
                                                                              
                      - O R C A' S   B I G   F R I E N D -                    
                                      &                                       
                       - I N T E G R A L  F E E D E R -                       
                                                                              
 v1 FN, 2020, v2 2021                                                         
------------------------------------------------------------------------------


Reading SHARK input file OPT_D.SHARKINP.tmp ... ok
----------------------
SHARK INTEGRAL PACKAGE
----------------------

Number of atoms                             ...      8
Number of basis functions                   ...     94
Number of shells                            ...     46
Maximum angular momentum                    ...      2
Integral batch strategy                     ... SHARK/LIBINT Hybrid
RI-J (if used) integral strategy            ... SPLIT-RIJ (Revised 2003 algorithm where possible)
Printlevel                                  ...      1
Contraction scheme used                     ... SEGMENTED contraction
Coulomb Range Separation                    ... NOT USED
Exchange Range Separation                   ... NOT USED
Finite Nucleus Model                        ... NOT USED
Auxiliary Coulomb fitting basis             ... AVAILABLE
   # of basis functions in Aux-J            ...    316
   # of shells in Aux-J                     ...    100
   Maximum angular momentum in Aux-J        ...      4
Auxiliary J/K fitting basis                 ... NOT available
Auxiliary Correlation fitting basis         ... NOT available
Auxiliary 'external' fitting basis          ... NOT available
Integral threshold                          ...     2.500000e-11
Primitive cut-off                           ...     2.500000e-12
Primitive pair pre-selection threshold      ...     2.500000e-12

Calculating pre-screening integrals         ... done (  0.0 sec) Dimension = 46
Organizing shell pair data                  ... done (  0.0 sec)
Shell pair information
Total number of shell pairs                 ...      1081
Shell pairs after pre-screening             ...       950
Total number of primitive shell pairs       ...      3825
Primitive shell pairs kept                  ...      2553
          la=0 lb=0:    333 shell pairs
          la=1 lb=0:    312 shell pairs
          la=1 lb=1:     77 shell pairs
          la=2 lb=0:    142 shell pairs
          la=2 lb=1:     68 shell pairs
          la=2 lb=2:     18 shell pairs

Calculating one electron integrals          ... done (  0.0 sec)
Calculating RI/J V-Matrix + Cholesky decomp.... done (  0.0 sec)
Calculating Nuclear repulsion               ... done (  0.0 sec) ENN=    160.738990501395 Eh

SHARK setup successfully completed in   0.3 seconds

Maximum memory used throughout the entire GTOINT-calculation: 10.3 MB
-------------------------------------------------------------------------------
                                 ORCA SCF
-------------------------------------------------------------------------------

------------
SCF SETTINGS
------------
Hamiltonian:
 Density Functional     Method          .... DFT(GTOs)
 Exchange Functional    Exchange        .... PBE
   PBE kappa parameter   XKappa         ....  1.024500
   PBE mue parameter    XMuePBE         ....  0.123457
 Correlation Functional Correlation     .... PBE
   PBE beta parameter  CBetaPBE         ....  0.030000
 LDA part of GGA corr.  LDAOpt          .... PW91-LDA
 Gradients option       PostSCFGGA      .... off
 Hybrid DFT is turned on
   Fraction HF Exchange ScalHFX         ....  0.420000
   Scaling of DF-GGA-X  ScalDFX         ....  0.580000
   Scaling of DF-GGA-C  ScalDFC         ....  1.000000
   Scaling of DF-LDA-C  ScalLDAC        ....  1.000000
   Perturbative correction              ....  0.000000
   Density functional embedding theory  .... OFF
 RI-approximation to the Coulomb term is turned on
   Number of AuxJ basis functions       .... 316
   RIJ-ON(X) (HFX calculated with O(N)) .... on
   Number of AuxJ basis functions       .... 316
   RIJ-COSX (HFX calculated with COS-X)).... on


General Settings:
 Integral files         IntName         .... OPT_D
 Hartree-Fock type      HFTyp           .... RHF
 Total Charge           Charge          ....    0
 Multiplicity           Mult            ....    1
 Number of Electrons    NEL             ....   40
 Basis Dimension        Dim             ....   94
 Nuclear Repulsion      ENuc            ....    160.7389905014 Eh

Convergence Acceleration:
 DIIS                   CNVDIIS         .... on
   Start iteration      DIISMaxIt       ....    12
   Startup error        DIISStart       ....  0.200000
   # of expansion vecs  DIISMaxEq       ....     5
   Bias factor          DIISBfac        ....   1.050
   Max. coefficient     DIISMaxC        ....  10.000
 Trust-Rad. Augm. Hess. CNVTRAH         .... auto
   Auto Start mean grad. ratio tolernc. ....  1.125000
   Auto Start start iteration           ....    20
   Auto Start num. interpolation iter.  ....    10
   Max. Number of Micro iterations      ....    16
   Max. Number of Macro iterations      .... Maxiter - #DIIS iter
   Number of Davidson start vectors     ....     2
   Converg. threshold I  (grad. norm)   ....   1.000e-05
   Converg. threshold II (energy diff.) ....   1.000e-08
   Grad. Scal. Fac. for Micro threshold ....   0.100
   Minimum threshold for Micro iter.    ....   0.010
   NR start threshold (gradient norm)   ....   0.001
   Initial trust radius                 ....   0.400
   Minimum AH scaling param. (alpha)    ....   1.000
   Maximum AH scaling param. (alpha)    .... 1000.000
   Orbital update algorithm             .... Taylor
   White noise on init. David. guess    .... on
   Maximum white noise                  ....   0.010
   Quad. conv. algorithm                .... NR
   COSX micro iterations for RIJONX calc.... off
 SOSCF                  CNVSOSCF        .... on
   Start iteration      SOSCFMaxIt      ....   150
   Startup grad/error   SOSCFStart      ....  0.003300
 Level Shifting         CNVShift        .... on
   Level shift para.    LevelShift      ....    0.2500
   Turn off err/grad.   ShiftErr        ....    0.0010
 Zerner damping         CNVZerner       .... off
 Static damping         CNVDamp         .... on
   Fraction old density DampFac         ....    0.7000
   Max. Damping (<1)    DampMax         ....    0.9800
   Min. Damping (>=0)   DampMin         ....    0.0000
   Turn off err/grad.   DampErr         ....    0.1000
 Fernandez-Rico         CNVRico         .... off

SCF Procedure:
 Maximum # iterations   MaxIter         ....   125
 SCF integral mode      SCFMode         .... Direct
   Integral package                     .... SHARK and LIBINT hybrid scheme
 Reset frequency        DirectResetFreq ....    20
 Integral Threshold     Thresh          ....  2.500e-11 Eh
 Primitive CutOff       TCut            ....  2.500e-12 Eh

Convergence Tolerance:
 Convergence Check Mode ConvCheckMode   .... Total+1el-Energy
 Convergence forced     ConvForced      .... 0
 Energy Change          TolE            ....  1.000e-08 Eh
 1-El. energy change                    ....  1.000e-05 Eh
 Orbital Gradient       TolG            ....  1.000e-05
 Orbital Rotation angle TolX            ....  1.000e-05
 DIIS Error             TolErr          ....  5.000e-07


Diagonalization of the overlap matrix:
Smallest eigenvalue                        ... 3.008e-03
Time for diagonalization                   ...    0.013 sec
Threshold for overlap eigenvalues          ... 1.000e-08
Number of eigenvalues below threshold      ... 0
Time for construction of square roots      ...    0.000 sec
Total time needed                          ...    0.013 sec

--------------------------------
INITIAL GUESS: MINIMAL BASIS EHT
--------------------------------
The minimal basis has 32 functions
EHT matrix was diagonalized
Basis set overlap was calculated now projecting the orbitals
Using GuessMode=FMatrix for the initial guess
C*T matrix was formed
Effective Fockian was calculated
Effective Fockian was diagonalized
Initial density was built
                      ------------------
                      INITIAL GUESS DONE
                      ------------------
-------------------
DFT GRID GENERATION
-------------------

General Integration Accuracy     IntAcc      ... 4.159
Radial Grid Type                 RadialGrid  ... OptM3 with GC (2021)
Angular Grid (max. ang.)         AngularGrid ... 3 (Lebedev-194)
Angular grid pruning method      GridPruning ... 4 (adaptive)
Weight generation scheme         WeightScheme... Becke
Basis function cutoff            BFCut       ... 1.0000e-11
Integration weight cutoff        WCut        ... 1.0000e-14
Angular grids for H and He will be reduced by one unit
Partially contracted basis set               ... off
Rotationally invariant grid construction     ... off

Total number of grid points                  ...    22805
Total number of batches                      ...      361
Average number of points per batch           ...       63
Average number of grid points per atom       ...     2851
Time for grid setup =    0.318 sec

--------------------
COSX GRID GENERATION
--------------------

GRIDX 1
-------
General Integration Accuracy     IntAcc      ... 3.816
Radial Grid Type                 RadialGrid  ... OptM3 with GC (2021)
Angular Grid (max. ang.)         AngularGrid ... 1 (Lebedev-50)
Angular grid pruning method      GridPruning ... 4 (adaptive)
Weight generation scheme         WeightScheme... Becke
Basis function cutoff            BFCut       ... 1.0000e-11
Integration weight cutoff        WCut        ... 1.0000e-14
Angular grids for H and He will be reduced by one unit
Partially contracted basis set               ... on
Rotationally invariant grid construction     ... off

Total number of grid points                  ...     5463
Total number of batches                      ...       88
Average number of points per batch           ...       62
Average number of grid points per atom       ...      683
UseSFitting                                  ... on

GRIDX 2
-------
General Integration Accuracy     IntAcc      ... 4.020
Radial Grid Type                 RadialGrid  ... OptM3 with GC (2021)
Angular Grid (max. ang.)         AngularGrid ... 2 (Lebedev-110)
Angular grid pruning method      GridPruning ... 4 (adaptive)
Weight generation scheme         WeightScheme... Becke
Basis function cutoff            BFCut       ... 1.0000e-11
Integration weight cutoff        WCut        ... 1.0000e-14
Angular grids for H and He will be reduced by one unit
Partially contracted basis set               ... on
Rotationally invariant grid construction     ... off

Total number of grid points                  ...    12680
Total number of batches                      ...      203
Average number of points per batch           ...       62
Average number of grid points per atom       ...     1585
UseSFitting                                  ... on

GRIDX 3
-------
General Integration Accuracy     IntAcc      ... 4.338
Radial Grid Type                 RadialGrid  ... OptM3 with GC (2021)
Angular Grid (max. ang.)         AngularGrid ... 3 (Lebedev-194)
Angular grid pruning method      GridPruning ... 4 (adaptive)
Weight generation scheme         WeightScheme... Becke
Basis function cutoff            BFCut       ... 1.0000e-11
Integration weight cutoff        WCut        ... 1.0000e-14
Angular grids for H and He will be reduced by one unit
Partially contracted basis set               ... on
Rotationally invariant grid construction     ... off

Total number of grid points                  ...    28126
Total number of batches                      ...      444
Average number of points per batch           ...       63
Average number of grid points per atom       ...     3516
UseSFitting                                  ... on

Time for X-Grid setup             =    0.905 sec

--------------
SCF ITERATIONS
--------------
ITER       Energy         Delta-E        Max-DP      RMS-DP      [F,P]     Damp
               ***  Starting incremental Fock matrix formation  ***
  0   -260.8592840789   0.000000000000 0.30051981  0.01456862  0.5614928 0.7000
  1   -261.5368300838  -0.677546004913 0.16041421  0.00635715  0.3108409 0.7000
  2   -261.8025686194  -0.265738535651 0.07279530  0.00335034  0.2151814 0.7000
                               ***Turning on DIIS***
  3   -261.9931289317  -0.190560312265 0.06327069  0.00271802  0.1502176 0.7000
  4   -262.1356664842  -0.142537552523 0.05017548  0.00205825  0.1052545 0.7000
  5   -262.2351288866  -0.099462402421 0.12319335  0.00508599  0.0736366 0.0000
  6   -262.4692520311  -0.234123144467 0.00471823  0.00034122  0.0036551 0.0000
  7   -262.4693153361  -0.000063305032 0.00199613  0.00008889  0.0041477 0.0000
                      *** Initiating the SOSCF procedure ***
                           *** Shutting down DIIS ***
                      *** Re-Reading the Fockian *** 
                      *** Removing any level shift *** 
ITER      Energy       Delta-E        Grad      Rot      Max-DP    RMS-DP
  8   -262.46936825  -0.0000529125  0.000291  0.000291  0.000651  0.000057
               *** Restarting incremental Fock matrix formation ***
  9   -262.46934661   0.0000216372  0.000158  0.000383  0.000385  0.000029
 10   -262.46934654   0.0000000724  0.000222  0.000236  0.000212  0.000011
 11   -262.46934712  -0.0000005806  0.000068  0.000109  0.000141  0.000007
 12   -262.46934710   0.0000000199  0.000069  0.000055  0.000070  0.000004
 13   -262.46934718  -0.0000000793  0.000003  0.000005  0.000004  0.000000
                 **** Energy Check signals convergence ****
              ***Rediagonalizing the Fockian in SOSCF/NRSCF***

               *****************************************************
               *                     SUCCESS                       *
               *           SCF CONVERGED AFTER  14 CYCLES          *
               *****************************************************

Old exchange energy                            =    -14.459592380 Eh
New exchange energy                            =    -14.459597607 Eh
Exchange energy change after final integration =     -0.000005227 Eh
Total energy after final integration           =   -262.469352407 Eh
Final COS-X integration done in                =     4.135 sec

----------------
TOTAL SCF ENERGY
----------------

Total Energy       :         -262.46935241 Eh           -7142.15418 eV

Components:
Nuclear Repulsion  :          160.73899050 Eh            4373.93030 eV
Electronic Energy  :         -423.20834291 Eh          -11516.08448 eV
One Electron Energy:         -671.09598808 Eh          -18261.45023 eV
Two Electron Energy:          247.88764517 Eh            6745.36575 eV
Max COSX asymmetry :            0.00000553 Eh               0.00015 eV

Virial components:
Potential Energy   :         -522.75431640 Eh          -14224.86813 eV
Kinetic Energy     :          260.28496399 Eh            7082.71395 eV
Virial Ratio       :            2.00839230


DFT components:
N(Alpha)           :       20.000021887665 electrons
N(Beta)            :       20.000021887665 electrons
N(Total)           :       40.000043775330 electrons
E(X)               :      -19.246944394513 Eh       
E(C)               :       -1.726039809512 Eh       
E(XC)              :      -20.972984204025 Eh       
DFET-embed. en.    :        0.000000000000 Eh       

---------------
SCF CONVERGENCE
---------------

  Last Energy change         ...   -5.2182e-11  Tolerance :   1.0000e-08
  Last MAX-Density change    ...    1.6653e-15  Tolerance :   1.0000e-07
  Last RMS-Density change    ...    4.9592e-17  Tolerance :   5.0000e-09
  Last Orbital Gradient      ...    6.3151e-07  Tolerance :   1.0000e-05
  Last Orbital Rotation      ...    2.4458e-06  Tolerance :   1.0000e-05

             **** THE GBW FILE WAS UPDATED (OPT_D.gbw) ****
             **** DENSITY OPT_D.scfp WAS UPDATED ****
             **** ENERGY FILE WAS UPDATED (OPT_D.en.tmp) ****
             **** THE GBW FILE WAS UPDATED (OPT_D.gbw) ****
             **** DENSITY OPT_D.scfp WAS UPDATED ****
----------------
ORBITAL ENERGIES
----------------

  NO   OCC          E(Eh)            E(eV) 
   0   2.0000     -14.684500      -399.5856 
   1   2.0000     -14.683366      -399.5547 
   2   2.0000     -10.552367      -287.1445 
   3   2.0000     -10.551446      -287.1195 
   4   2.0000     -10.528568      -286.4969 
   5   2.0000     -10.527330      -286.4632 
   6   2.0000      -1.045741       -28.4561 
   7   2.0000      -1.040686       -28.3185 
   8   2.0000      -0.959046       -26.0970 
   9   2.0000      -0.805295       -21.9132 
  10   2.0000      -0.656031       -17.8515 
  11   2.0000      -0.632478       -17.2106 
  12   2.0000      -0.539871       -14.6906 
  13   2.0000      -0.481086       -13.0910 
  14   2.0000      -0.463908       -12.6236 
  15   2.0000      -0.456565       -12.4238 
  16   2.0000      -0.440085       -11.9753 
  17   2.0000      -0.424509       -11.5515 
  18   2.0000      -0.417917       -11.3721 
  19   2.0000      -0.358782        -9.7629 
  20   0.0000      -0.093279        -2.5383 
  21   0.0000       0.022170         0.6033 
  22   0.0000       0.032285         0.8785 
  23   0.0000       0.088502         2.4083 
  24   0.0000       0.131387         3.5752 
  25   0.0000       0.138364         3.7651 
  26   0.0000       0.167086         4.5466 
  27   0.0000       0.173002         4.7076 
  28   0.0000       0.246141         6.6978 
  29   0.0000       0.285003         7.7553 
  30   0.0000       0.377067        10.2605 
  31   0.0000       0.414491        11.2789 
  32   0.0000       0.459911        12.5148 
  33   0.0000       0.498916        13.5762 
  34   0.0000       0.516608        14.0576 
  35   0.0000       0.535407        14.5692 
  36   0.0000       0.559607        15.2277 
  37   0.0000       0.585906        15.9433 
  38   0.0000       0.597559        16.2604 
  39   0.0000       0.618369        16.8267 
  40   0.0000       0.663911        18.0659 
  41   0.0000       0.685158        18.6441 
  42   0.0000       0.693279        18.8651 
  43   0.0000       0.699216        19.0266 
  44   0.0000       0.878513        23.9056 
  45   0.0000       0.878978        23.9182 
  46   0.0000       0.904750        24.6195 
  47   0.0000       0.919517        25.0213 
  48   0.0000       0.926521        25.2119 
  49   0.0000       0.931344        25.3431 
  50   0.0000       0.968570        26.3561 
  51   0.0000       1.008148        27.4331 
  52   0.0000       1.031404        28.0659 
  53   0.0000       1.113446        30.2984 
  54   0.0000       1.145983        31.1838 
  55   0.0000       1.291236        35.1363 
  56   0.0000       1.321328        35.9552 
  57   0.0000       1.382644        37.6237 
  58   0.0000       1.492912        40.6242 
  59   0.0000       1.537766        41.8447 
  60   0.0000       1.552829        42.2546 
  61   0.0000       1.563035        42.5323 
  62   0.0000       1.598356        43.4935 
  63   0.0000       1.640076        44.6287 
  64   0.0000       1.650755        44.9193 
  65   0.0000       1.698489        46.2182 
  66   0.0000       1.701225        46.2927 
  67   0.0000       1.857873        50.5553 
  68   0.0000       1.948741        53.0279 
  69   0.0000       1.961628        53.3786 
  70   0.0000       1.983156        53.9644 
  71   0.0000       1.991963        54.2041 
  72   0.0000       1.996906        54.3386 
  73   0.0000       2.024606        55.0923 
  74   0.0000       2.032799        55.3153 
  75   0.0000       2.110241        57.4226 
  76   0.0000       2.282432        62.1081 
  77   0.0000       2.327917        63.3458 
  78   0.0000       2.474142        67.3248 
  79   0.0000       2.511260        68.3349 
  80   0.0000       2.731864        74.3378 
  81   0.0000       2.740357        74.5689 
  82   0.0000       2.810143        76.4679 
  83   0.0000       2.821206        76.7689 
  84   0.0000       2.985739        81.2461 
  85   0.0000       2.998948        81.6055 
  86   0.0000       3.344529        91.0093 
  87   0.0000       3.375643        91.8559 
  88   0.0000      13.236825       360.1923 
  89   0.0000      13.716184       373.2363 
  90   0.0000      14.052318       382.3830 
  91   0.0000      14.260400       388.0452 
  92   0.0000      19.471632       529.8500 
  93   0.0000      19.475223       529.9477 

                    ********************************
                    * MULLIKEN POPULATION ANALYSIS *
                    ********************************

-----------------------
MULLIKEN ATOMIC CHARGES
-----------------------
   0 C :    0.081097
   1 C :   -0.234909
   2 C :   -0.229779
   3 C :    0.078986
   4 H :    0.312113
   5 H :    0.308866
   6 N :   -0.158850
   7 N :   -0.157524
Sum of atomic charges:   -0.0000000

--------------------------------
MULLIKEN REDUCED ORBITAL CHARGES
--------------------------------
  0 C s       :     3.067438  s :     3.067438
      pz      :     0.944007  p :     2.806174
      px      :     0.936279
      py      :     0.925889
      dz2     :     0.005605  d :     0.045291
      dxz     :     0.011287
      dyz     :     0.003965
      dx2y2   :     0.012853
      dxy     :     0.011580
  1 C s       :     3.261637  s :     3.261637
      pz      :     0.967443  p :     2.933497
      px      :     0.857862
      py      :     1.108192
      dz2     :     0.005234  d :     0.039775
      dxz     :     0.006707
      dyz     :     0.003336
      dx2y2   :     0.013803
      dxy     :     0.010695
  2 C s       :     3.264851  s :     3.264851
      pz      :     0.967725  p :     2.925032
      px      :     0.862762
      py      :     1.094545
      dz2     :     0.005180  d :     0.039896
      dxz     :     0.006424
      dyz     :     0.003732
      dx2y2   :     0.013131
      dxy     :     0.011429
  3 C s       :     3.065392  s :     3.065392
      pz      :     0.944630  p :     2.810065
      px      :     0.940518
      py      :     0.924916
      dz2     :     0.005546  d :     0.045558
      dxz     :     0.010384
      dyz     :     0.005042
      dx2y2   :     0.013535
      dxy     :     0.011050
  4 H s       :     0.687887  s :     0.687887
  5 H s       :     0.691134  s :     0.691134
  6 N s       :     3.655979  s :     3.655979
      pz      :     1.057214  p :     3.458573
      px      :     1.253515
      py      :     1.147843
      dz2     :     0.004905  d :     0.044298
      dxz     :     0.009917
      dyz     :     0.005206
      dx2y2   :     0.014068
      dxy     :     0.010202
  7 N s       :     3.657101  s :     3.657101
      pz      :     1.056650  p :     3.456176
      px      :     1.278318
      py      :     1.121207
      dz2     :     0.005048  d :     0.044248
      dxz     :     0.010972
      dyz     :     0.004114
      dx2y2   :     0.013153
      dxy     :     0.010961


                     *******************************
                     * LOEWDIN POPULATION ANALYSIS *
                     *******************************

----------------------
LOEWDIN ATOMIC CHARGES
----------------------
   0 C :   -0.014402
   1 C :   -0.120296
   2 C :   -0.120049
   3 C :   -0.015571
   4 H :    0.180903
   5 H :    0.179880
   6 N :   -0.046392
   7 N :   -0.044072

-------------------------------
LOEWDIN REDUCED ORBITAL CHARGES
-------------------------------
  0 C s       :     2.913737  s :     2.913737
      pz      :     0.942187  p :     3.000792
      px      :     1.087208
      py      :     0.971397
      dz2     :     0.012241  d :     0.099873
      dxz     :     0.023694
      dyz     :     0.008655
      dx2y2   :     0.028067
      dxy     :     0.027216
  1 C s       :     2.906449  s :     2.906449
      pz      :     0.976730  p :     3.124861
      px      :     1.039637
      py      :     1.108495
      dz2     :     0.008954  d :     0.088986
      dxz     :     0.014929
      dyz     :     0.006635
      dx2y2   :     0.031423
      dxy     :     0.027045
  2 C s       :     2.907804  s :     2.907804
      pz      :     0.977370  p :     3.123160
      px      :     1.039555
      py      :     1.106235
      dz2     :     0.008908  d :     0.089086
      dxz     :     0.014279
      dyz     :     0.007317
      dx2y2   :     0.029849
      dxy     :     0.028732
  3 C s       :     2.912923  s :     2.912923
      pz      :     0.940508  p :     3.002141
      px      :     1.070014
      py      :     0.991619
      dz2     :     0.012165  d :     0.100507
      dxz     :     0.021714
      dyz     :     0.010891
      dx2y2   :     0.028621
      dxy     :     0.027116
  4 H s       :     0.819097  s :     0.819097
  5 H s       :     0.820120  s :     0.820120
  6 N s       :     3.404048  s :     3.404048
      pz      :     1.068792  p :     3.568892
      px      :     1.319619
      py      :     1.180481
      dz2     :     0.008677  d :     0.073451
      dxz     :     0.015401
      dyz     :     0.008016
      dx2y2   :     0.020936
      dxy     :     0.020422
  7 N s       :     3.404863  s :     3.404863
      pz      :     1.068505  p :     3.565862
      px      :     1.351222
      py      :     1.146135
      dz2     :     0.008807  d :     0.073347
      dxz     :     0.017187
      dyz     :     0.006333
      dx2y2   :     0.020672
      dxy     :     0.020348


                      *****************************
                      * MAYER POPULATION ANALYSIS *
                      *****************************

  NA   - Mulliken gross atomic population
  ZA   - Total nuclear charge
  QA   - Mulliken gross atomic charge
  VA   - Mayer's total valence
  BVA  - Mayer's bonded valence
  FA   - Mayer's free valence

  ATOM       NA         ZA         QA         VA         BVA        FA
  0 C      5.9189     6.0000     0.0811     4.1162     4.1162    -0.0000
  1 C      6.2349     6.0000    -0.2349     3.7024     3.7024    -0.0000
  2 C      6.2298     6.0000    -0.2298     3.7016     3.7016    -0.0000
  3 C      5.9210     6.0000     0.0790     4.1162     4.1162    -0.0000
  4 H      0.6879     1.0000     0.3121     0.8743     0.8743    -0.0000
  5 H      0.6911     1.0000     0.3089     0.8782     0.8782     0.0000
  6 N      7.1588     7.0000    -0.1588     3.2012     3.2012    -0.0000
  7 N      7.1575     7.0000    -0.1575     3.2013     3.2013    -0.0000

  Mayer bond orders larger than 0.100000
B(  0-C ,  1-C ) :   1.0323 B(  0-C ,  7-N ) :   3.1100 B(  1-C ,  2-C ) :   1.7670 
B(  1-C ,  4-H ) :   0.8816 B(  2-C ,  3-C ) :   1.0326 B(  2-C ,  5-H ) :   0.8841 
B(  3-C ,  6-N ) :   3.1090 

-------
TIMINGS
-------

Total SCF time: 0 days 0 hours 0 min 29 sec 

Total time                  ....      29.839 sec
Sum of individual times     ....      29.495 sec  ( 98.8%)

Fock matrix formation       ....      28.214 sec  ( 94.6%)
  Split-RI-J                ....       2.479 sec  (  8.8% of F)
  Chain of spheres X        ....      21.359 sec  ( 75.7% of F)
  XC integration            ....       4.391 sec  ( 15.6% of F)
    Basis function eval.    ....       1.574 sec  ( 35.8% of XC)
    Density eval.           ....       1.032 sec  ( 23.5% of XC)
    XC-Functional eval.     ....       0.732 sec  ( 16.7% of XC)
    XC-Potential eval.      ....       0.822 sec  ( 18.7% of XC)
Diagonalization             ....       0.019 sec  (  0.1%)
Density matrix formation    ....       0.003 sec  (  0.0%)
Population analysis         ....       0.002 sec  (  0.0%)
Initial guess               ....       0.022 sec  (  0.1%)
Orbital Transformation      ....       0.000 sec  (  0.0%)
Orbital Orthonormalization  ....       0.000 sec  (  0.0%)
DIIS solution               ....       0.005 sec  (  0.0%)
SOSCF solution              ....       0.007 sec  (  0.0%)
Grid generation             ....       1.223 sec  (  4.1%)

Maximum memory used throughout the entire SCF-calculation: 53.1 MB


-------------------------------------------------------------------------------
                          DFT DISPERSION CORRECTION                            
                                                                               
                              DFTD3 V3.1  Rev 1                                
                          USING Becke-Johnson damping                          
-------------------------------------------------------------------------------
The PBEh-3c composite method is recognized
Using three-body term ABC
Active option DFTDOPT                   ...         4   

molecular C6(AA) [au] = 1145.426543 


            DFT-D V3
 parameters
 s6 scaling factor         :     1.0000 
 a1 scaling factor         :     0.4860 
 s8 scaling factor         :     0.0000 
 a2 scaling factor         :     4.5000 
 Damping factor alpha9(ATM):    16.0000 
 ad hoc parameters k1-k3   :    16.0000     1.3333    -4.0000 

 Edisp/kcal,au: -2.102788674570  -0.003351006697 
 E6   /kcal   :  -2.100753623 
 E8   /kcal   :  -0.000000000 
 E6(ABC)      :  -0.002035051 
 % E8         :   0.000000000 
 % E6(ABC)    :   0.096778687 

-------------------------   ----------------
Dispersion correction           -0.003351007
-------------------------   ----------------

------------------   -----------------
gCP correction             0.006662420
------------------   -----------------

-------------------------   --------------------
FINAL SINGLE POINT ENERGY      -262.466040993549
-------------------------   --------------------

------------------------------------------------------------------------------
                         ORCA SCF GRADIENT CALCULATION
------------------------------------------------------------------------------

 ... reading COSX grid (gridx3)
Gradient of the Kohn-Sham DFT energy:
Kohn-Sham wavefunction type      ... RKS
Hartree-Fock exchange scaling    ...    0.420
Number of operators              ...    1
Number of atoms                  ...    8
Basis set dimensions             ...   94
Integral neglect threshold       ... 2.5e-11
Integral primitive cutoff        ... 2.5e-12
SHARK Integral package           ... ON

Nuc. rep. gradient       (SHARK) ... done (  0.0 sec)
HCore & Overlap gradient (SHARK) ... done (  0.1 sec)
RI-J gradient            (SHARK) ... done (  0.7 sec)
COSX-gradient                    ... done (  4.9 sec)
Exchange-correlation gradient    ... done
Dispersion correction            ... done
gCP correction                   ... done

------------------
CARTESIAN GRADIENT
------------------

   1   C   :   -0.002668085   -0.000297401    0.001122524
   2   C   :    0.003234320    0.012234600    0.000102111
   3   C   :   -0.000780742   -0.011470184   -0.000452566
   4   C   :    0.001001096    0.000932370   -0.000712296
   5   H   :    0.003380043   -0.001677979   -0.001409309
   6   H   :   -0.001124585   -0.001234859    0.000411125
   7   N   :    0.017292456    0.012070570   -0.005533015
   8   N   :   -0.020336085   -0.010501736    0.006417704

Difference to translation invariance:
           :   -0.0000015810    0.0000553801   -0.0000537210

Difference to rotation invariance:
           :   -0.0016173855    0.0010162847   -0.0006928843

Norm of the cartesian gradient     ...    0.0369180038
RMS gradient                       ...    0.0075358560
MAX gradient                       ...    0.0203360855

-------
TIMINGS
-------

Total SCF gradient time            ...        7.805 sec

One electron gradient       ....       0.058 sec  (  0.7%)
RI-J Coulomb gradient       ....       0.681 sec  (  8.7%)
COSX gradient               ....       4.884 sec  ( 62.6%)
XC gradient                 ....       1.580 sec  ( 20.2%)

Maximum memory used throughout the entire SCFGRAD-calculation: 41.8 MB
------------------------------------------------------------------------------
                         ORCA GEOMETRY RELAXATION STEP
------------------------------------------------------------------------------

Reading the OPT-File                    .... done
Getting information on internals        .... done
Copying old internal coords+grads       .... done
Making the new internal coordinates     .... (new redundants).... done
Validating the new internal coordinates .... (new redundants).... done
Calculating the B-matrix                .... done
Calculating the G,G- and P matrices     .... done
Transforming gradient to internals      .... done
Projecting the internal gradient        .... done
Number of atoms                         ....   8
Number of internal coordinates          ....  21
Current Energy                          ....  -262.466040994 Eh
Current gradient norm                   ....     0.036918004 Eh/bohr
Maximum allowed component of the step   ....  0.300
Current trust radius                    ....  0.300
Evaluating the initial hessian          ....  (Almloef) done
Projecting the Hessian                  .... done
Forming the augmented Hessian           .... done
Diagonalizing the augmented Hessian     .... done
Last element of RFO vector              ....  0.996457133
Lowest eigenvalues of augmented Hessian:
 -0.004007443  0.038185523  0.038186713  0.038190533  0.352111067
Length of the computed step             ....  0.084401229
The final length of the internal step   ....  0.084401229
Converting the step to cartesian space:
 Initial RMS(Int)=    0.0184178580
Transforming coordinates:
 Iter   0:  RMS(Cart)=    0.0345914261 RMS(Int)=    0.0183768386
 Iter   1:  RMS(Cart)=    0.0002348725 RMS(Int)=    0.0001523353
 Iter   2:  RMS(Cart)=    0.0000071294 RMS(Int)=    0.0000081594
 Iter   3:  RMS(Cart)=    0.0000030652 RMS(Int)=    0.0000037938
 Iter   4:  RMS(Cart)=    0.0000015256 RMS(Int)=    0.0000018905
 Iter   5:  RMS(Cart)=    0.0000007604 RMS(Int)=    0.0000009421
 Iter   6:  RMS(Cart)=    0.0000003791 RMS(Int)=    0.0000004694
 Iter   7:  RMS(Cart)=    0.0000001889 RMS(Int)=    0.0000002339
 Iter   8:  RMS(Cart)=    0.0000000942 RMS(Int)=    0.0000001166
done
Storing new coordinates                 .... done

                                .--------------------.
          ----------------------|Geometry convergence|-------------------------
          Item                value                   Tolerance       Converged
          ---------------------------------------------------------------------
          RMS gradient        0.0113008409            0.0001000000      NO
          MAX gradient        0.0263534727            0.0003000000      NO
          RMS step            0.0184178580            0.0020000000      NO
          MAX step            0.0530925785            0.0040000000      NO
          ........................................................
          Max(Bonds)      0.0281      Max(Angles)    1.23
          Max(Dihed)        0.51      Max(Improp)    0.00
          ---------------------------------------------------------------------

The optimization has not yet converged - more geometry cycles are needed


    ---------------------------------------------------------------------------
                         Redundant Internal Coordinates
                            (Angstroem and degrees)

        Definition                    Value    dE/dq     Step     New-Value
    ----------------------------------------------------------------------------
     1. B(C   1,C   0)                1.4548  0.026353 -0.0281    1.4267   
     2. B(C   2,C   1)                1.3464  0.015796 -0.0113    1.3351   
     3. B(C   3,C   2)                1.4526  0.023293 -0.0246    1.4280   
     4. B(H   4,C   1)                1.0800 -0.001963  0.0028    1.0828   
     5. B(H   5,C   2)                1.0835  0.001078 -0.0015    1.0819   
     6. B(N   6,C   3)                1.1596  0.021802 -0.0088    1.1508   
     7. B(N   7,C   0)                1.1604  0.023770 -0.0096    1.1508   
     8. L(C   1,C   0,N   7,H   4, 1) 177.31 -0.001462    0.18    177.49   
     9. L(C   1,C   0,N   7,H   4, 2) 179.51 -0.000059    0.01    179.52   
    10. A(C   0,C   1,H   4)          116.49 -0.000841    0.06    116.55   
    11. A(C   0,C   1,C   2)          124.47  0.008839   -1.23    123.24   
    12. A(C   2,C   1,H   4)          119.03 -0.007999    1.17    120.20   
    13. A(C   3,C   2,H   5)          117.27  0.000941   -0.16    117.11   
    14. A(C   1,C   2,H   5)          121.69 -0.001772    0.27    121.97   
    15. A(C   1,C   2,C   3)          121.04  0.000830   -0.11    120.93   
    16. L(C   2,C   3,N   6,C   1, 1) 180.74 -0.000281    0.03    180.78   
    17. L(C   2,C   3,N   6,C   1, 2) 180.00 -0.000023    0.00    180.00   
    18. D(C   3,C   2,C   1,H   4)     -0.26 -0.000181    0.24     -0.02   
    19. D(H   5,C   2,C   1,C   0)     -0.39 -0.000144    0.20     -0.19   
    20. D(H   5,C   2,C   1,H   4)    179.92  0.000052   -0.07    179.85   
    21. D(C   3,C   2,C   1,C   0)    179.43 -0.000376    0.51    179.94   
    ----------------------------------------------------------------------------

         *************************************************************
         *                GEOMETRY OPTIMIZATION CYCLE   2            *
         *************************************************************
---------------------------------
CARTESIAN COORDINATES (ANGSTROEM)
---------------------------------
  C     -7.068974    3.984646    2.703545
  C     -5.907209    4.727886    2.338155
  C     -4.794323    4.161246    1.866107
  C     -3.659681    4.953691    1.514217
  H     -5.961681    5.802352    2.460463
  H     -4.707895    3.090801    1.734775
  N     -2.737660    5.579316    1.226510
  N     -8.030137    3.429020    3.006398

----------------------------
CARTESIAN COORDINATES (A.U.)
----------------------------
  NO LB      ZA    FRAG     MASS         X           Y           Z
   0 C     6.0000    0    12.011  -13.358425    7.529891    5.108959
   1 C     6.0000    0    12.011  -11.163007    8.934410    4.418473
   2 C     6.0000    0    12.011   -9.059958    7.863616    3.526431
   3 C     6.0000    0    12.011   -6.915795    9.361120    2.861456
   4 H     1.0000    0     1.008  -11.265944   10.964857    4.649601
   5 H     1.0000    0     1.008   -8.896632    5.840768    3.278251
   6 N     7.0000    0    14.007   -5.173428   10.543380    2.317767
   7 N     7.0000    0    14.007  -15.174759    6.479908    5.681268

--------------------------------
INTERNAL COORDINATES (ANGSTROEM)
--------------------------------
 C      0   0   0     0.000000000000     0.00000000     0.00000000
 C      1   0   0     1.426748975575     0.00000000     0.00000000
 C      2   1   0     1.335074930895   123.24446866     0.00000000
 C      3   2   1     1.428008710496   120.92590112   179.93968765
 H      2   1   3     1.082776377659   116.55404286   179.96152044
 H      3   2   1     1.081928633352   121.96683973   359.80837799
 N      4   3   2     1.150784120228   179.22213386   180.09639723
 N      1   2   3     1.150771439599   177.47544957   185.38557707

---------------------------
INTERNAL COORDINATES (A.U.)
---------------------------
 C      0   0   0     0.000000000000     0.00000000     0.00000000
 C      1   0   0     2.696164825689     0.00000000     0.00000000
 C      2   1   0     2.522925987655   123.24446866     0.00000000
 C      3   2   1     2.698545379692   120.92590112   179.93968765
 H      2   1   3     2.046150818055   116.55404286   179.96152044
 H      3   2   1     2.044548813483   121.96683973   359.80837799
 N      4   3   2     2.174666826497   179.22213386   180.09639723
 N      1   2   3     2.174642863581   177.47544957   185.38557707

------------------------------------------------------------------------------
                   ___                                                        
                  /   \      - P O W E R E D   B Y -                         
                 /     \                                                     
                 |  |  |   _    _      __       _____    __    __             
                 |  |  |  | |  | |    /  \     |  _  \  |  |  /  |          
                  \  \/   | |  | |   /    \    | | | |  |  | /  /          
                 / \  \   | |__| |  /  /\  \   | |_| |  |  |/  /          
                |  |  |   |  __  | /  /__\  \  |    /   |      \           
                |  |  |   | |  | | |   __   |  |    \   |  |\   \          
                \     /   | |  | | |  |  |  |  | |\  \  |  | \   \       
                 \___/    |_|  |_| |__|  |__|  |_| \__\ |__|  \__/        
                                                                              
                      - O R C A' S   B I G   F R I E N D -                    
                                      &                                       
                       - I N T E G R A L  F E E D E R -                       
                                                                              
 v1 FN, 2020, v2 2021                                                         
------------------------------------------------------------------------------


Reading SHARK input file OPT_D.SHARKINP.tmp ... ok
----------------------
SHARK INTEGRAL PACKAGE
----------------------

Number of atoms                             ...      8
Number of basis functions                   ...     94
Number of shells                            ...     46
Maximum angular momentum                    ...      2
Integral batch strategy                     ... SHARK/LIBINT Hybrid
RI-J (if used) integral strategy            ... SPLIT-RIJ (Revised 2003 algorithm where possible)
Printlevel                                  ...      1
Contraction scheme used                     ... SEGMENTED contraction
Coulomb Range Separation                    ... NOT USED
Exchange Range Separation                   ... NOT USED
Finite Nucleus Model                        ... NOT USED
Auxiliary Coulomb fitting basis             ... AVAILABLE
   # of basis functions in Aux-J            ...    316
   # of shells in Aux-J                     ...    100
   Maximum angular momentum in Aux-J        ...      4
Auxiliary J/K fitting basis                 ... NOT available
Auxiliary Correlation fitting basis         ... NOT available
Auxiliary 'external' fitting basis          ... NOT available
Integral threshold                          ...     2.500000e-11
Primitive cut-off                           ...     2.500000e-12
Primitive pair pre-selection threshold      ...     2.500000e-12

Calculating pre-screening integrals         ... done (  0.0 sec) Dimension = 46
Organizing shell pair data                  ... done (  0.0 sec)
Shell pair information
Total number of shell pairs                 ...      1081
Shell pairs after pre-screening             ...       956
Total number of primitive shell pairs       ...      3825
Primitive shell pairs kept                  ...      2566
          la=0 lb=0:    334 shell pairs
          la=1 lb=0:    316 shell pairs
          la=1 lb=1:     77 shell pairs
          la=2 lb=0:    143 shell pairs
          la=2 lb=1:     68 shell pairs
          la=2 lb=2:     18 shell pairs

Calculating one electron integrals          ... done (  0.0 sec)
Calculating RI/J V-Matrix + Cholesky decomp.... done (  0.0 sec)
Calculating Nuclear repulsion               ... done (  0.0 sec) ENN=    162.740214881042 Eh

SHARK setup successfully completed in   0.2 seconds

Maximum memory used throughout the entire GTOINT-calculation: 10.3 MB

Diagonalization of the overlap matrix:
Smallest eigenvalue                        ... 2.710e-03
Time for diagonalization                   ...    0.002 sec
Threshold for overlap eigenvalues          ... 1.000e-08
Number of eigenvalues below threshold      ... 0
Time for construction of square roots      ...    0.000 sec
Total time needed                          ...    0.002 sec

-------------------
DFT GRID GENERATION
-------------------

General Integration Accuracy     IntAcc      ... 4.159
Radial Grid Type                 RadialGrid  ... OptM3 with GC (2021)
Angular Grid (max. ang.)         AngularGrid ... 3 (Lebedev-194)
Angular grid pruning method      GridPruning ... 4 (adaptive)
Weight generation scheme         WeightScheme... Becke
Basis function cutoff            BFCut       ... 1.0000e-11
Integration weight cutoff        WCut        ... 1.0000e-14
Angular grids for H and He will be reduced by one unit
Partially contracted basis set               ... off
Rotationally invariant grid construction     ... off

Total number of grid points                  ...    22797
Total number of batches                      ...      360
Average number of points per batch           ...       63
Average number of grid points per atom       ...     2850
Time for grid setup =    0.283 sec

--------------------
COSX GRID GENERATION
--------------------

GRIDX 1
-------
General Integration Accuracy     IntAcc      ... 3.816
Radial Grid Type                 RadialGrid  ... OptM3 with GC (2021)
Angular Grid (max. ang.)         AngularGrid ... 1 (Lebedev-50)
Angular grid pruning method      GridPruning ... 4 (adaptive)
Weight generation scheme         WeightScheme... Becke
Basis function cutoff            BFCut       ... 1.0000e-11
Integration weight cutoff        WCut        ... 1.0000e-14
Angular grids for H and He will be reduced by one unit
Partially contracted basis set               ... on
Rotationally invariant grid construction     ... off

Total number of grid points                  ...     5461
Total number of batches                      ...       88
Average number of points per batch           ...       62
Average number of grid points per atom       ...      683
UseSFitting                                  ... on

GRIDX 2
-------
General Integration Accuracy     IntAcc      ... 4.020
Radial Grid Type                 RadialGrid  ... OptM3 with GC (2021)
Angular Grid (max. ang.)         AngularGrid ... 2 (Lebedev-110)
Angular grid pruning method      GridPruning ... 4 (adaptive)
Weight generation scheme         WeightScheme... Becke
Basis function cutoff            BFCut       ... 1.0000e-11
Integration weight cutoff        WCut        ... 1.0000e-14
Angular grids for H and He will be reduced by one unit
Partially contracted basis set               ... on
Rotationally invariant grid construction     ... off

Total number of grid points                  ...    12679
Total number of batches                      ...      201
Average number of points per batch           ...       63
Average number of grid points per atom       ...     1585
UseSFitting                                  ... on

GRIDX 3
-------
General Integration Accuracy     IntAcc      ... 4.338
Radial Grid Type                 RadialGrid  ... OptM3 with GC (2021)
Angular Grid (max. ang.)         AngularGrid ... 3 (Lebedev-194)
Angular grid pruning method      GridPruning ... 4 (adaptive)
Weight generation scheme         WeightScheme... Becke
Basis function cutoff            BFCut       ... 1.0000e-11
Integration weight cutoff        WCut        ... 1.0000e-14
Angular grids for H and He will be reduced by one unit
Partially contracted basis set               ... on
Rotationally invariant grid construction     ... off

Total number of grid points                  ...    28116
Total number of batches                      ...      444
Average number of points per batch           ...       63
Average number of grid points per atom       ...     3514
UseSFitting                                  ... on

Time for X-Grid setup             =    0.898 sec

--------------
SCF ITERATIONS
--------------
ITER       Energy         Delta-E        Max-DP      RMS-DP      [F,P]     Damp
               ***  Starting incremental Fock matrix formation  ***
  0   -262.4710744935   0.000000000000 0.00199145  0.00015032  0.0115227 0.7000
                      *** Initiating the SOSCF procedure ***
                      *** Re-Reading the Fockian *** 
                      *** Removing any level shift *** 
ITER      Energy       Delta-E        Grad      Rot      Max-DP    RMS-DP
  1   -262.47129048  -0.0002159850  0.000691  0.000691  0.005680  0.000421
               *** Restarting incremental Fock matrix formation ***
  2   -262.47180823  -0.0005177562  0.001274  0.002803  0.002639  0.000161
  3   -262.47181110  -0.0000028608  0.001756  0.002256  0.002008  0.000097
  4   -262.47184443  -0.0000333319  0.000385  0.000430  0.000850  0.000053
  5   -262.47184690  -0.0000024751  0.000241  0.000182  0.000423  0.000019
  6   -262.47184810  -0.0000011936  0.000030  0.000061  0.000100  0.000004
  7   -262.47184810   0.0000000006  0.000038  0.000043  0.000050  0.000002
  8   -262.47184812  -0.0000000201  0.000009  0.000016  0.000023  0.000001
  9   -262.47184811   0.0000000013  0.000008  0.000014  0.000014  0.000001
                 **** Energy Check signals convergence ****
              ***Rediagonalizing the Fockian in SOSCF/NRSCF***

               *****************************************************
               *                     SUCCESS                       *
               *           SCF CONVERGED AFTER  10 CYCLES          *
               *****************************************************

Old exchange energy                            =    -14.483658959 Eh
New exchange energy                            =    -14.483659956 Eh
Exchange energy change after final integration =     -0.000000997 Eh
Total energy after final integration           =   -262.471849114 Eh
Final COS-X integration done in                =     3.817 sec
Total Energy       :         -262.47184911 Eh           -7142.22212 eV
  Last Energy change         ...   -2.9520e-09  Tolerance :   1.0000e-08
  Last MAX-Density change    ...    1.1102e-15  Tolerance :   1.0000e-07
             **** THE GBW FILE WAS UPDATED (OPT_D.gbw) ****
             **** DENSITY OPT_D.scfp WAS UPDATED ****
             **** ENERGY FILE WAS UPDATED (OPT_D.en.tmp) ****
             **** THE GBW FILE WAS UPDATED (OPT_D.gbw) ****
             **** DENSITY OPT_D.scfp WAS UPDATED ****
Total SCF time: 0 days 0 hours 0 min 26 sec 

Maximum memory used throughout the entire SCF-calculation: 53.2 MB


-------------------------------------------------------------------------------
                          DFT DISPERSION CORRECTION                            
                                                                               
                              DFTD3 V3.1  Rev 1                                
                          USING Becke-Johnson damping                          
-------------------------------------------------------------------------------
-------------------------   ----------------
Dispersion correction           -0.003386794
-------------------------   ----------------

------------------   -----------------
gCP correction             0.006846647
------------------   -----------------

-------------------------   --------------------
FINAL SINGLE POINT ENERGY      -262.468389260065
-------------------------   --------------------

------------------------------------------------------------------------------
                         ORCA SCF GRADIENT CALCULATION
------------------------------------------------------------------------------

 ... reading COSX grid (gridx3)
Gradient of the Kohn-Sham DFT energy:
Kohn-Sham wavefunction type      ... RKS
Hartree-Fock exchange scaling    ...    0.420
Number of operators              ...    1
Number of atoms                  ...    8
Basis set dimensions             ...   94
Integral neglect threshold       ... 2.5e-11
Integral primitive cutoff        ... 2.5e-12
SHARK Integral package           ... ON

Nuc. rep. gradient       (SHARK) ... done (  0.0 sec)
HCore & Overlap gradient (SHARK) ... done (  0.0 sec)
RI-J gradient            (SHARK) ... done (  0.7 sec)
COSX-gradient                    ... done (  3.9 sec)
Exchange-correlation gradient    ... done
Dispersion correction            ... done
gCP correction                   ... done

------------------
CARTESIAN GRADIENT
------------------

   1   C   :   -0.004831570   -0.002941857    0.001890743
   2   C   :    0.002029257   -0.000209592   -0.000992743
   3   C   :   -0.002291333   -0.001625630    0.000613878
   4   C   :    0.004002613    0.003720006   -0.001242705
   5   H   :    0.001439963    0.000045028   -0.000509848
   6   H   :   -0.000095522    0.000254508    0.000195774
   7   N   :   -0.000848940   -0.000508820    0.000125197
   8   N   :    0.000608728    0.001328218   -0.000109249

Difference to translation invariance:
           :    0.0000131949    0.0000618601   -0.0000289555

Difference to rotation invariance:
           :   -0.0016395732    0.0016582219   -0.0010796516

Norm of the cartesian gradient     ...    0.0092727481
RMS gradient                       ...    0.0018927918
MAX gradient                       ...    0.0048315703

-------
TIMINGS
-------

Total SCF gradient time            ...        6.511 sec

One electron gradient       ....       0.049 sec  (  0.8%)
RI-J Coulomb gradient       ....       0.705 sec  ( 10.8%)
COSX gradient               ....       3.949 sec  ( 60.7%)
XC gradient                 ....       1.340 sec  ( 20.6%)

Maximum memory used throughout the entire SCFGRAD-calculation: 41.8 MB
------------------------------------------------------------------------------
                         ORCA GEOMETRY RELAXATION STEP
------------------------------------------------------------------------------

Reading the OPT-File                    .... done
Getting information on internals        .... done
Copying old internal coords+grads       .... done
Making the new internal coordinates     .... (new redundants).... done
Validating the new internal coordinates .... (new redundants).... done
Calculating the B-matrix                .... done
Calculating the G,G- and P matrices     .... done
Transforming gradient to internals      .... done
Projecting the internal gradient        .... done
Number of atoms                         ....   8
Number of internal coordinates          ....  21
Current Energy                          ....  -262.468389260 Eh
Current gradient norm                   ....     0.009272748 Eh/bohr
Maximum allowed component of the step   ....  0.300
Current trust radius                    ....  0.300
Updating the Hessian (BFGS)             .... done
Forming the augmented Hessian           .... done
Diagonalizing the augmented Hessian     .... done
Last element of RFO vector              ....  0.999677674
Lowest eigenvalues of augmented Hessian:
 -0.000223128  0.038178477  0.038186583  0.038214926  0.336041071
Length of the computed step             ....  0.025396125
The final length of the internal step   ....  0.025396125
Converting the step to cartesian space:
 Initial RMS(Int)=    0.0055418889
Transforming coordinates:
 Iter   0:  RMS(Cart)=    0.0136685421 RMS(Int)=    1.3704137892
 Iter   1:  RMS(Cart)=    0.0000812387 RMS(Int)=    0.0000613355
 Iter   2:  RMS(Cart)=    0.0000038496 RMS(Int)=    0.0000055140
 Iter   3:  RMS(Cart)=    0.0000018705 RMS(Int)=    0.0000027322
 Iter   4:  RMS(Cart)=    0.0000009292 RMS(Int)=    0.0000013571
 Iter   5:  RMS(Cart)=    0.0000004616 RMS(Int)=    0.0000006741
 Iter   6:  RMS(Cart)=    0.0000002293 RMS(Int)=    0.0000003348
 Iter   7:  RMS(Cart)=    0.0000001139 RMS(Int)=    0.0000001663
 Iter   8:  RMS(Cart)=    0.0000000566 RMS(Int)=    0.0000000826
done
Storing new coordinates                 .... done

                                .--------------------.
          ----------------------|Geometry convergence|-------------------------
          Item                value                   Tolerance       Converged
          ---------------------------------------------------------------------
          Energy change      -0.0023482665            0.0000050000      NO
          RMS gradient        0.0019614735            0.0001000000      NO
          MAX gradient        0.0047648938            0.0003000000      NO
          RMS step            0.0055418889            0.0020000000      NO
          MAX step            0.0128695220            0.0040000000      NO
          ........................................................
          Max(Bonds)      0.0068      Max(Angles)    0.68
          Max(Dihed)        0.18      Max(Improp)    0.00
          ---------------------------------------------------------------------

The optimization has not yet converged - more geometry cycles are needed


    ---------------------------------------------------------------------------
                         Redundant Internal Coordinates
                            (Angstroem and degrees)

        Definition                    Value    dE/dq     Step     New-Value
    ----------------------------------------------------------------------------
     1. B(C   1,C   0)                1.4267  0.004765 -0.0068    1.4199   
     2. B(C   2,C   1)                1.3351 -0.000068 -0.0003    1.3348   
     3. B(C   3,C   2)                1.4280  0.004569 -0.0064    1.4216   
     4. B(H   4,C   1)                1.0828 -0.000101  0.0002    1.0830   
     5. B(H   5,C   2)                1.0819 -0.000285  0.0004    1.0824   
     6. B(N   6,C   3)                1.1508 -0.000986  0.0002    1.1510   
     7. B(N   7,C   0)                1.1508 -0.001165  0.0003    1.1510   
     8. L(C   1,C   0,N   7,H   4, 1) 177.49 -0.001785    0.26    177.74   
     9. L(C   1,C   0,N   7,H   4, 2) 179.52 -0.000073    0.01    179.53   
    10. A(C   0,C   1,H   4)          116.55 -0.000431    0.04    116.60   
    11. A(C   0,C   1,C   2)          123.24  0.003931   -0.68    122.56   
    12. A(C   2,C   1,H   4)          120.20 -0.003500    0.64    120.84   
    13. A(C   3,C   2,H   5)          117.11  0.000891   -0.16    116.95   
    14. A(C   1,C   2,H   5)          121.97  0.000671   -0.10    121.87   
    15. A(C   1,C   2,C   3)          120.93 -0.001562    0.26    121.18   
    16. L(C   2,C   3,N   6,C   1, 1) 180.78 -0.000131    0.02    180.80   
    17. L(C   2,C   3,N   6,C   1, 2) 180.00 -0.000002    0.00    180.00   
    18. D(C   3,C   2,C   1,H   4)     -0.02 -0.000029    0.05      0.03   
    19. D(H   5,C   2,C   1,C   0)     -0.19 -0.000033    0.06     -0.13   
    20. D(H   5,C   2,C   1,H   4)    179.85 -0.000106    0.18    180.03   
    21. D(C   3,C   2,C   1,C   0)    179.94  0.000044   -0.07    179.87   
    ----------------------------------------------------------------------------

         *************************************************************
         *                GEOMETRY OPTIMIZATION CYCLE   3            *
         *************************************************************
---------------------------------
CARTESIAN COORDINATES (ANGSTROEM)
---------------------------------
  C     -7.059129    3.986803    2.700196
  C     -5.908594    4.737211    2.340498
  C     -4.797615    4.167158    1.868853
  C     -3.663138    4.947370    1.515081
  H     -5.971856    5.811244    2.464556
  H     -4.716371    3.095843    1.737729
  N     -2.736866    5.565693    1.224447
  N     -8.013992    3.417637    2.998811

----------------------------
CARTESIAN COORDINATES (A.U.)
----------------------------
  NO LB      ZA    FRAG     MASS         X           Y           Z
   0 C     6.0000    0    12.011  -13.339820    7.533966    5.102631
   1 C     6.0000    0    12.011  -11.165624    8.952032    4.422900
   2 C     6.0000    0    12.011   -9.066179    7.874788    3.531620
   3 C     6.0000    0    12.011   -6.922328    9.349175    2.863088
   4 H     1.0000    0     1.008  -11.285172   10.981659    4.657336
   5 H     1.0000    0     1.008   -8.912649    5.850296    3.283832
   6 N     7.0000    0    14.007   -5.171927   10.517636    2.313869
   7 N     7.0000    0    14.007  -15.144250    6.458397    5.666931

--------------------------------
INTERNAL COORDINATES (ANGSTROEM)
--------------------------------
 C      0   0   0     0.000000000000     0.00000000     0.00000000
 C      1   0   0     1.419938717860     0.00000000     0.00000000
 C      2   1   0     1.334796974574   122.56226696     0.00000000
 C      3   2   1     1.421591943364   121.18222745   179.86988533
 H      2   1   3     1.083022773748   116.59911094   179.84496371
 H      3   2   1     1.082362931420   121.87001355   359.87030131
 N      4   3   2     1.150987445051   179.20268117   180.10742749
 N      1   2   3     1.151036796389   177.73277200   185.94531556

---------------------------
INTERNAL COORDINATES (A.U.)
---------------------------
 C      0   0   0     0.000000000000     0.00000000     0.00000000
 C      1   0   0     2.683295303707     0.00000000     0.00000000
 C      2   1   0     2.522400726332   122.56226696     0.00000000
 C      3   2   1     2.686419447146   121.18222745   179.86988533
 H      2   1   3     2.046616439183   116.59911094   179.84496371
 H      3   2   1     2.045369517892   121.87001355   359.87030131
[...]
Angular grid pruning method      GridPruning ... 4 (adaptive)
Weight generation scheme         WeightScheme... Becke
Basis function cutoff            BFCut       ... 1.0000e-11
Integration weight cutoff        WCut        ... 1.0000e-14
Angular grids for H and He will be reduced by one unit
Partially contracted basis set               ... on
Rotationally invariant grid construction     ... off

Total number of grid points                  ...    28108
Total number of batches                      ...      444
Average number of points per batch           ...       63
Average number of grid points per atom       ...     3514
UseSFitting                                  ... on

Time for X-Grid setup             =    0.363 sec

--------------
SCF ITERATIONS
--------------
ITER       Energy         Delta-E        Max-DP      RMS-DP      [F,P]     Damp
               ***  Starting incremental Fock matrix formation  ***
                      *** Initiating the SOSCF procedure ***
                      *** Re-Reading the Fockian *** 
                      *** Removing any level shift *** 
ITER      Energy       Delta-E        Grad      Rot      Max-DP    RMS-DP
  0   -262.47205216 -262.4720521632  0.000046  0.000046  0.000103  0.000007
               *** Restarting incremental Fock matrix formation ***
  1   -262.47205234  -0.0000001765  0.000020  0.000044  0.000057  0.000003
  2   -262.47205236  -0.0000000163  0.000025  0.000051  0.000045  0.000003
  3   -262.47205236  -0.0000000020  0.000019  0.000023  0.000028  0.000001
                 **** Energy Check signals convergence ****
              ***Rediagonalizing the Fockian in SOSCF/NRSCF***

               *****************************************************
               *                     SUCCESS                       *
               *           SCF CONVERGED AFTER   4 CYCLES          *
               *****************************************************

Old exchange energy                            =    -14.485308369 Eh
New exchange energy                            =    -14.485304222 Eh
Exchange energy change after final integration =      0.000004146 Eh
Total energy after final integration           =   -262.472048217 Eh
Final COS-X integration done in                =     2.336 sec

----------------
TOTAL SCF ENERGY
----------------

Total Energy       :         -262.47204822 Eh           -7142.22754 eV

Components:
Nuclear Repulsion  :          163.03751026 Eh            4436.47620 eV
Electronic Energy  :         -425.50955848 Eh          -11578.70374 eV
One Electron Energy:         -675.65838317 Eh          -18385.59931 eV
Two Electron Energy:          250.14882470 Eh            6806.89558 eV
Max COSX asymmetry :            0.00000271 Eh               0.00007 eV

Virial components:
Potential Energy   :         -523.00506070 Eh          -14231.69123 eV
Kinetic Energy     :          260.53301249 Eh            7089.46369 eV
Virial Ratio       :            2.00744257


DFT components:
N(Alpha)           :       20.000021927450 electrons
N(Beta)            :       20.000021927450 electrons
N(Total)           :       40.000043854900 electrons
E(X)               :      -19.278342284923 Eh       
E(C)               :       -1.729751417997 Eh       
E(XC)              :      -21.008093702920 Eh       
DFET-embed. en.    :        0.000000000000 Eh       

---------------
SCF CONVERGENCE
---------------

  Last Energy change         ...   -5.2870e-09  Tolerance :   1.0000e-08
  Last MAX-Density change    ...    1.7764e-15  Tolerance :   1.0000e-07
  Last RMS-Density change    ...    5.3042e-17  Tolerance :   5.0000e-09
  Last Orbital Gradient      ...    9.7801e-07  Tolerance :   1.0000e-05
  Last Orbital Rotation      ...    3.6403e-06  Tolerance :   1.0000e-05

             **** THE GBW FILE WAS UPDATED (OPT_D.gbw) ****
             **** DENSITY OPT_D.scfp WAS UPDATED ****
             **** ENERGY FILE WAS UPDATED (OPT_D.en.tmp) ****
             **** THE GBW FILE WAS UPDATED (OPT_D.gbw) ****
             **** DENSITY OPT_D.scfp WAS UPDATED ****
----------------
ORBITAL ENERGIES
----------------

  NO   OCC          E(Eh)            E(eV) 
   0   2.0000     -14.680473      -399.4760 
   1   2.0000     -14.680468      -399.4758 
   2   2.0000     -10.546956      -286.9973 
   3   2.0000     -10.546017      -286.9717 
   4   2.0000     -10.522447      -286.3303 
   5   2.0000     -10.522391      -286.3288 
   6   2.0000      -1.050003       -28.5720 
   7   2.0000      -1.043898       -28.4059 
   8   2.0000      -0.964979       -26.2584 
   9   2.0000      -0.813903       -22.1474 
  10   2.0000      -0.659026       -17.9330 
  11   2.0000      -0.635264       -17.2864 
  12   2.0000      -0.542045       -14.7498 
  13   2.0000      -0.487089       -13.2544 
  14   2.0000      -0.462460       -12.5842 
  15   2.0000      -0.455862       -12.4046 
  16   2.0000      -0.443085       -12.0570 
  17   2.0000      -0.425433       -11.5766 
  18   2.0000      -0.418459       -11.3868 
  19   2.0000      -0.357394        -9.7252 
  20   0.0000      -0.092792        -2.5250 
  21   0.0000       0.028010         0.7622 
  22   0.0000       0.035878         0.9763 
  23   0.0000       0.097048         2.6408 
  24   0.0000       0.137409         3.7391 
  25   0.0000       0.137933         3.7533 
  26   0.0000       0.174858         4.7581 
  27   0.0000       0.186082         5.0635 
  28   0.0000       0.255982         6.9656 
  29   0.0000       0.287068         7.8115 
  30   0.0000       0.384171        10.4538 
  31   0.0000       0.421577        11.4717 
  32   0.0000       0.457511        12.4495 
  33   0.0000       0.505698        13.7607 
  34   0.0000       0.515922        14.0390 
  35   0.0000       0.539008        14.6671 
  36   0.0000       0.565380        15.3848 
  37   0.0000       0.581928        15.8351 
  38   0.0000       0.608195        16.5498 
  39   0.0000       0.622032        16.9264 
  40   0.0000       0.667488        18.1633 
  41   0.0000       0.687696        18.7132 
  42   0.0000       0.694054        18.8862 
  43   0.0000       0.700947        19.0737 
  44   0.0000       0.864233        23.5170 
  45   0.0000       0.880878        23.9699 
  46   0.0000       0.905842        24.6492 
  47   0.0000       0.925148        25.1746 
  48   0.0000       0.934908        25.4401 
  49   0.0000       0.935763        25.4634 
  50   0.0000       0.970979        26.4217 
  51   0.0000       1.020471        27.7684 
  52   0.0000       1.042456        28.3667 
  53   0.0000       1.136128        30.9156 
  54   0.0000       1.173013        31.9193 
  55   0.0000       1.309441        35.6317 
  56   0.0000       1.323247        36.0074 
  57   0.0000       1.383724        37.6530 
  58   0.0000       1.489051        40.5191 
  59   0.0000       1.535107        41.7724 
  60   0.0000       1.556250        42.3477 
  61   0.0000       1.560156        42.4540 
  62   0.0000       1.602965        43.6189 
  63   0.0000       1.647490        44.8305 
  64   0.0000       1.656586        45.0780 
  65   0.0000       1.702355        46.3234 
  66   0.0000       1.709738        46.5243 
  67   0.0000       1.876189        51.0537 
  68   0.0000       1.955375        53.2085 
  69   0.0000       1.976131        53.7732 
  70   0.0000       1.989838        54.1463 
  71   0.0000       2.000626        54.4398 
  72   0.0000       2.013487        54.7898 
  73   0.0000       2.044841        55.6429 
  74   0.0000       2.055948        55.9452 
  75   0.0000       2.129381        57.9434 
  76   0.0000       2.318104        63.0788 
  77   0.0000       2.345293        63.8187 
  78   0.0000       2.507160        68.2233 
  79   0.0000       2.524334        68.6906 
  80   0.0000       2.749669        74.8223 
  81   0.0000       2.761443        75.1427 
  82   0.0000       2.838562        77.2412 
  83   0.0000       2.859453        77.8097 
  84   0.0000       3.028591        82.4121 
  85   0.0000       3.043588        82.8202 
  86   0.0000       3.388875        92.2160 
  87   0.0000       3.421760        93.1108 
  88   0.0000      13.240396       360.2895 
  89   0.0000      13.729286       373.5929 
  90   0.0000      14.126004       384.3881 
  91   0.0000      14.337951       390.1555 
  92   0.0000      19.484370       530.1967 
  93   0.0000      19.497502       530.5540 

                    ********************************
                    * MULLIKEN POPULATION ANALYSIS *
                    ********************************

-----------------------
MULLIKEN ATOMIC CHARGES
-----------------------
   0 C :    0.073947
   1 C :   -0.231887
   2 C :   -0.231942
   3 C :    0.073966
   4 H :    0.311878
   5 H :    0.311890
   6 N :   -0.153929
   7 N :   -0.153924
Sum of atomic charges:    0.0000000

--------------------------------
MULLIKEN REDUCED ORBITAL CHARGES
--------------------------------
  0 C s       :     3.054712  s :     3.054712
      pz      :     0.947057  p :     2.824520
      px      :     0.949787
      py      :     0.927676
      dz2     :     0.005676  d :     0.046821
      dxz     :     0.011151
      dyz     :     0.004755
      dx2y2   :     0.013931
      dxy     :     0.011309
  1 C s       :     3.253210  s :     3.253210
      pz      :     0.967521  p :     2.937444
      px      :     0.869074
      py      :     1.100849
      dz2     :     0.005306  d :     0.041233
      dxz     :     0.006770
      dyz     :     0.003835
      dx2y2   :     0.013744
      dxy     :     0.011579
  2 C s       :     3.253238  s :     3.253238
      pz      :     0.967586  p :     2.937471
      px      :     0.869012
      py      :     1.100873
      dz2     :     0.005308  d :     0.041233
      dxz     :     0.006769
      dyz     :     0.003835
      dx2y2   :     0.013744
      dxy     :     0.011576
  3 C s       :     3.054699  s :     3.054699
      pz      :     0.946991  p :     2.824514
      px      :     0.949842
      py      :     0.927681
      dz2     :     0.005709  d :     0.046822
      dxz     :     0.011132
      dyz     :     0.004772
      dx2y2   :     0.013916
      dxy     :     0.011292
  4 H s       :     0.688122  s :     0.688122
  5 H s       :     0.688110  s :     0.688110
  6 N s       :     3.646729  s :     3.646729
      pz      :     1.055234  p :     3.462379
      px      :     1.266189
      py      :     1.140956
      dz2     :     0.005006  d :     0.044820
      dxz     :     0.010423
      dyz     :     0.004890
      dx2y2   :     0.013987
      dxy     :     0.010513
  7 N s       :     3.646723  s :     3.646723
      pz      :     1.054785  p :     3.462381
      px      :     1.266702
      py      :     1.140894
      dz2     :     0.004965  d :     0.044820
      dxz     :     0.010448
      dyz     :     0.004872
      dx2y2   :     0.014004
      dxy     :     0.010531


                     *******************************
                     * LOEWDIN POPULATION ANALYSIS *
                     *******************************

----------------------
LOEWDIN ATOMIC CHARGES
----------------------
   0 C :   -0.018801
   1 C :   -0.119084
   2 C :   -0.119094
   3 C :   -0.018786
   4 H :    0.181167
   5 H :    0.181176
   6 N :   -0.043288
   7 N :   -0.043290

-------------------------------
LOEWDIN REDUCED ORBITAL CHARGES
-------------------------------
  0 C s       :     2.903370  s :     2.903370
      pz      :     0.941711  p :     3.009771
      px      :     1.082377
      py      :     0.985684
      dz2     :     0.012717  d :     0.105660
      dxz     :     0.023812
      dyz     :     0.010543
      dx2y2   :     0.030442
      dxy     :     0.028146
  1 C s       :     2.897385  s :     2.897385
      pz      :     0.974892  p :     3.128136
      px      :     1.044631
      py      :     1.108613
      dz2     :     0.009401  d :     0.093563
      dxz     :     0.015394
      dyz     :     0.007533
      dx2y2   :     0.031864
      dxy     :     0.029371
  2 C s       :     2.897377  s :     2.897377
      pz      :     0.974928  p :     3.128153
      px      :     1.044599
      py      :     1.108626
      dz2     :     0.009403  d :     0.093563
      dxz     :     0.015395
      dyz     :     0.007534
      dx2y2   :     0.031864
      dxy     :     0.029367
  3 C s       :     2.903359  s :     2.903359
      pz      :     0.942008  p :     3.009766
      px      :     1.082037
      py      :     0.985721
      dz2     :     0.012762  d :     0.105662
      dxz     :     0.023804
      dyz     :     0.010587
      dx2y2   :     0.030404
      dxy     :     0.028105
  4 H s       :     0.818833  s :     0.818833
  5 H s       :     0.818824  s :     0.818824
  6 N s       :     3.396581  s :     3.396581
      pz      :     1.067444  p :     3.572308
      px      :     1.334122
      py      :     1.170742
      dz2     :     0.008818  d :     0.074399
      dxz     :     0.016288
      dyz     :     0.007561
      dx2y2   :     0.021207
      dxy     :     0.020525
  7 N s       :     3.396578  s :     3.396578
      pz      :     1.066832  p :     3.572313
      px      :     1.334810
      py      :     1.170671
      dz2     :     0.008781  d :     0.074399
      dxz     :     0.016292
      dyz     :     0.007521
      dx2y2   :     0.021244
      dxy     :     0.020562


                      *****************************
                      * MAYER POPULATION ANALYSIS *
                      *****************************

  NA   - Mulliken gross atomic population
  ZA   - Total nuclear charge
  QA   - Mulliken gross atomic charge
  VA   - Mayer's total valence
  BVA  - Mayer's bonded valence
  FA   - Mayer's free valence

  ATOM       NA         ZA         QA         VA         BVA        FA
  0 C      5.9261     6.0000     0.0739     4.1322     4.1322     0.0000
  1 C      6.2319     6.0000    -0.2319     3.7054     3.7054     0.0000
  2 C      6.2319     6.0000    -0.2319     3.7054     3.7054     0.0000
  3 C      5.9260     6.0000     0.0740     4.1322     4.1322     0.0000
  4 H      0.6881     1.0000     0.3119     0.8746     0.8746     0.0000
  5 H      0.6881     1.0000     0.3119     0.8746     0.8746    -0.0000
  6 N      7.1539     7.0000    -0.1539     3.2137     3.2137     0.0000
  7 N      7.1539     7.0000    -0.1539     3.2137     3.2137     0.0000

  Mayer bond orders larger than 0.100000
B(  0-C ,  1-C ) :   1.0429 B(  0-C ,  7-N ) :   3.1177 B(  1-C ,  2-C ) :   1.7613 
B(  1-C ,  4-H ) :   0.8815 B(  2-C ,  3-C ) :   1.0429 B(  2-C ,  5-H ) :   0.8815 
B(  3-C ,  6-N ) :   3.1177 

-------
TIMINGS
-------

Total SCF time: 0 days 0 hours 0 min 9 sec 

Total time                  ....       9.245 sec
Sum of individual times     ....       9.155 sec  ( 99.0%)

Fock matrix formation       ....       8.622 sec  ( 93.3%)
  Split-RI-J                ....       0.583 sec  (  6.8% of F)
  Chain of spheres X        ....       7.254 sec  ( 84.1% of F)
  XC integration            ....       0.801 sec  (  9.3% of F)
    Basis function eval.    ....       0.344 sec  ( 42.9% of XC)
    Density eval.           ....       0.151 sec  ( 18.9% of XC)
    XC-Functional eval.     ....       0.124 sec  ( 15.4% of XC)
    XC-Potential eval.      ....       0.130 sec  ( 16.2% of XC)
Diagonalization             ....       0.002 sec  (  0.0%)
Density matrix formation    ....       0.001 sec  (  0.0%)
Population analysis         ....       0.002 sec  (  0.0%)
Initial guess               ....       0.002 sec  (  0.0%)
Orbital Transformation      ....       0.000 sec  (  0.0%)
Orbital Orthonormalization  ....       0.001 sec  (  0.0%)
DIIS solution               ....       0.000 sec  (  0.0%)
SOSCF solution              ....       0.003 sec  (  0.0%)
Grid generation             ....       0.524 sec  (  5.7%)

Maximum memory used throughout the entire SCF-calculation: 53.3 MB


-------------------------------------------------------------------------------
                          DFT DISPERSION CORRECTION                            
                                                                               
                              DFTD3 V3.1  Rev 1                                
                          USING Becke-Johnson damping                          
-------------------------------------------------------------------------------
The PBEh-3c composite method is recognized
Using three-body term ABC
Active option DFTDOPT                   ...         4   

molecular C6(AA) [au] = 1144.430907 


            DFT-D V3
 parameters
 s6 scaling factor         :     1.0000 
 a1 scaling factor         :     0.4860 
 s8 scaling factor         :     0.0000 
 a2 scaling factor         :     4.5000 
 Damping factor alpha9(ATM):    16.0000 
 ad hoc parameters k1-k3   :    16.0000     1.3333    -4.0000 

 Edisp/kcal,au: -2.129746471273  -0.003393966676 
 E6   /kcal   :  -2.127982421 
 E8   /kcal   :  -0.000000000 
 E6(ABC)      :  -0.001764051 
 % E8         :   0.000000000 
 % E6(ABC)    :   0.082829136 

-------------------------   ----------------
Dispersion correction           -0.003393967
-------------------------   ----------------

------------------   -----------------
gCP correction             0.006865083
------------------   -----------------

-------------------------   --------------------
FINAL SINGLE POINT ENERGY      -262.468577100991
-------------------------   --------------------

                                *** OPTIMIZATION RUN DONE ***

                            ***************************************
                            *     ORCA property calculations      *
                            ***************************************

                                    ---------------------
                                    Active property flags
                                    ---------------------
   (+) Dipole Moment


------------------------------------------------------------------------------
                       ORCA ELECTRIC PROPERTIES CALCULATION
------------------------------------------------------------------------------

Dipole Moment Calculation                       ... on
Quadrupole Moment Calculation                   ... off
Polarizability Calculation                      ... off
GBWName                                         ... OPT_D.gbw
Electron density                                ... OPT_D.scfp
The origin for moment calculation is the CENTER OF MASS  = (-10.126108,  8.439786  3.979770)

-------------
DIPOLE MOMENT
-------------
                                X             Y             Z
Electronic contribution:      0.00038       0.00001       0.00046
Nuclear contribution   :      0.00034      -0.00016       0.00175
                        -----------------------------------------
Total Dipole Moment    :      0.00072      -0.00015       0.00221
                        -----------------------------------------
Magnitude (a.u.)       :      0.00233
Magnitude (Debye)      :      0.00592



--------------------
Rotational spectrum 
--------------------
 
Rotational constants in cm-1:     1.564998     0.049996     0.048448 
Rotational constants in MHz : 46917.466014  1498.839737  1452.440541 

 Dipole components along the rotational axes: 
x,y,z [a.u.] :     0.000079    -0.000089     0.002325 
x,y,z [Debye]:     0.000201    -0.000226     0.005910 

 

Timings for individual modules:

Sum of individual times         ...      229.375 sec (=   3.823 min)
GTO integral calculation        ...        2.293 sec (=   0.038 min)   1.0 %
SCF iterations                  ...      175.006 sec (=   2.917 min)  76.3 %
SCF Gradient evaluation         ...       51.721 sec (=   0.862 min)  22.5 %
Geometry relaxation             ...        0.356 sec (=   0.006 min)   0.2 %
                             ****ORCA TERMINATED NORMALLY****
TOTAL RUN TIME: 0 days 0 hours 3 minutes 50 seconds 843 msec
