      -----------------------------------------------------------      
     |                   =====================                   |     
     |                           x T B                           |     
     |                   =====================                   |     
     |                         S. Grimme                         |     
     |          Mulliken Center for Theoretical Chemistry        |     
     |                    University of Bonn                     |     
      -----------------------------------------------------------      

   * xtb version 6.5.1 (579679a) compiled by 'ehlert@majestix' on 2022-07-11

   xtb is free software: you can redistribute it and/or modify it under
   the terms of the GNU Lesser General Public License as published by
   the Free Software Foundation, either version 3 of the License, or
   (at your option) any later version.
   
   xtb is distributed in the hope that it will be useful,
   but WITHOUT ANY WARRANTY; without even the implied warranty of
   MERCHANTABILITY or FITNESS FOR A PARTICULAR PURPOSE.  See the
   GNU Lesser General Public License for more details.
   
   Cite this work as:
   * C. Bannwarth, E. Caldeweyher, S. Ehlert, A. Hansen, P. Pracht,
     J. Seibert, S. Spicher, S. Grimme, WIREs Comput. Mol. Sci., 2020, 11,
     e01493. DOI: 10.1002/wcms.1493
   
   for GFN2-xTB:
   * C. Bannwarth, S. Ehlert and S. Grimme., J. Chem. Theory Comput., 2019,
     15, 1652-1671. DOI: 10.1021/acs.jctc.8b01176
   for GFN1-xTB:
   * S. Grimme, C. Bannwarth, P. Shushkov, J. Chem. Theory Comput., 2017,
     13, 1989-2009. DOI: 10.1021/acs.jctc.7b00118
   for GFN0-xTB:
   * P. Pracht, E. Caldeweyher, S. Ehlert, S. Grimme, ChemRxiv, 2019, preprint.
     DOI: 10.26434/chemrxiv.8326202.v1
   for GFN-FF:
   * S. Spicher and S. Grimme, Angew. Chem. Int. Ed., 2020, 59, 15665-15673.
     DOI: 10.1002/anie.202004239
   
   for ALPB and GBSA implicit solvation:
   * S. Ehlert, M. Stahn, S. Spicher, S. Grimme, J. Chem. Theory Comput.,
     2021, 17, 4250-4261. DOI: 10.1021/acs.jctc.1c00471
   
   for DFT-D4:
   * E. Caldeweyher, C. Bannwarth and S. Grimme, J. Chem. Phys., 2017,
     147, 034112. DOI: 10.1063/1.4993215
   * E. Caldeweyher, S. Ehlert, A. Hansen, H. Neugebauer, S. Spicher,
     C. Bannwarth and S. Grimme, J. Chem. Phys., 2019, 150, 154122.
     DOI: 10.1063/1.5090222
   * E. Caldeweyher, J.-M. Mewes, S. Ehlert and S. Grimme, Phys. Chem. Chem. Phys.
     2020, 22, 8499-8512. DOI: 10.1039/D0CP00502A
   
   for sTDA-xTB:
   * S. Grimme and C. Bannwarth, J. Chem. Phys., 2016, 145, 054103.
     DOI: 10.1063/1.4959605
   
   in the mass-spec context:
   * V. Asgeirsson, C. Bauer and S. Grimme, Chem. Sci., 2017, 8, 4879.
     DOI: 10.1039/c7sc00601b
   * J. Koopman and S. Grimme, ACS Omega 2019, 4, 12, 15120-15133.
     DOI: 10.1021/acsomega.9b02011
   
   for metadynamics refer to:
   * S. Grimme, J. Chem. Theory Comput., 2019, 155, 2847-2862
     DOI: 10.1021/acs.jctc.9b00143
   
   for SPH calculations refer to:
   * S. Spicher and S. Grimme, J. Chem. Theory Comput., 2021, 17, 1701-1714
     DOI: 10.1021/acs.jctc.0c01306
   
   with help from (in alphabetical order)
   P. Atkinson, C. Bannwarth, F. Bohle, G. Brandenburg, E. Caldeweyher
   M. Checinski, S. Dohm, S. Ehlert, S. Ehrlich, I. Gerasimov, C. Hölzer
   A. Katbashev, J. Koopman, C. Lavigne, S. Lehtola, F. März, M. Müller,
   F. Musil, H. Neugebauer, J. Pisarek, C. Plett, P. Pracht, F. Pultar,
   J. Seibert, P. Shushkov, S. Spicher, M. Stahn, M. Steiner, T. Strunk,
   J. Stückrath, T. Rose, and J. Unsleber
   
 * started run on 2023/06/13 at 15:45:10.502     

           -------------------------------------------------
          |                Calculation Setup                |
           -------------------------------------------------

          program call               : xtb end.xyz --opt
          hostname                   : c04
          coordinate file            : end.xyz
          omp threads                :                     2

   ID    Z sym.   atoms
    1    6 C      1-5, 12-16
    2    1 H      6-11, 17-22

           -------------------------------------------------
          |                 G F N 2 - x T B                 |
           -------------------------------------------------

        Reference                      10.1021/acs.jctc.8b01176
      * Hamiltonian:
        H0-scaling (s, p, d)           1.850000    2.230000    2.230000
        zeta-weighting                 0.500000
      * Dispersion:
        s8                             2.700000
        a1                             0.520000
        a2                             5.000000
        s9                             5.000000
      * Repulsion:
        kExp                           1.500000    1.000000
        rExp                           1.000000
      * Coulomb:
        alpha                          2.000000
        third order                    shell-resolved
        anisotropic                    true
        a3                             3.000000
        a5                             4.000000
        cn-shift                       1.200000
        cn-exp                         4.000000
        max-rad                        5.000000


          ...................................................
          :                      SETUP                      :
          :.................................................:
          :  # basis functions                  52          :
          :  # atomic orbitals                  52          :
          :  # shells                           32          :
          :  # electrons                        52          :
          :  max. iterations                   250          :
          :  Hamiltonian                  GFN2-xTB          :
          :  restarted?                      false          :
          :  GBSA solvation                  false          :
          :  PC potential                    false          :
          :  electronic temp.          300.0000000     K    :
          :  accuracy                    1.0000000          :
          :  -> integral cutoff          0.2500000E+02      :
          :  -> integral neglect         0.1000000E-07      :
          :  -> SCF convergence          0.1000000E-05 Eh   :
          :  -> wf. convergence          0.1000000E-03 e    :
          :  Broyden damping             0.4000000          :
          ...................................................

 iter      E             dE          RMSdq      gap      omega  full diag
   1    -27.8474006 -0.278474E+02  0.339E+00    4.52       0.0  T
   2    -27.8883519 -0.409513E-01  0.201E+00    4.44       1.0  T
   3    -27.8880065  0.345400E-03  0.728E-01    4.41       1.0  T
   4    -27.8864121  0.159441E-02  0.414E-01    4.44       1.0  T
   5    -27.8894560 -0.304396E-02  0.872E-02    4.42       1.0  T
   6    -27.8895466 -0.905808E-04  0.375E-02    4.42       1.0  T
   7    -27.8895395  0.707617E-05  0.274E-02    4.42       1.0  T
   8    -27.8895524 -0.128525E-04  0.266E-03    4.42       8.0  T
   9    -27.8895525 -0.846232E-07  0.881E-04    4.42      24.2  T
  10    -27.8895525 -0.911577E-09  0.247E-04    4.42      86.4  T

   *** convergence criteria satisfied after 10 iterations ***

         #    Occupation            Energy/Eh            Energy/eV
      -------------------------------------------------------------
         1        2.0000           -0.6524091             -17.7530
       ...           ...                  ...                  ...
        20        2.0000           -0.4401695             -11.9776
        21        2.0000           -0.4369117             -11.8890
        22        2.0000           -0.4297355             -11.6937
        23        2.0000           -0.4215594             -11.4712
        24        2.0000           -0.4177380             -11.3672
        25        2.0000           -0.3759453             -10.2300
        26        2.0000           -0.3744009             -10.1880 (HOMO)
        27                         -0.2119374              -5.7671 (LUMO)
        28                         -0.2068877              -5.6297
        29                          0.0398256               1.0837
        30                          0.0459007               1.2490
        31                          0.0532237               1.4483
       ...                                ...                  ...
        52                          0.5718174              15.5599
      -------------------------------------------------------------
                  HL-Gap            0.1624635 Eh            4.4209 eV
             Fermi-level           -0.2931692 Eh           -7.9775 eV

 SCC (total)                   0 d,  0 h,  0 min,  0.618 sec
 SCC setup                      ...        0 min,  0.002 sec (  0.267%)
 Dispersion                     ...        0 min,  0.000 sec (  0.072%)
 classical contributions        ...        0 min,  0.000 sec (  0.012%)
 integral evaluation            ...        0 min,  0.006 sec (  0.937%)
 iterations                     ...        0 min,  0.378 sec ( 61.133%)
 molecular gradient             ...        0 min,  0.232 sec ( 37.519%)
 printout                       ...        0 min,  0.000 sec (  0.046%)

         :::::::::::::::::::::::::::::::::::::::::::::::::::::
         ::                     SUMMARY                     ::
         :::::::::::::::::::::::::::::::::::::::::::::::::::::
         :: total energy             -27.488104766906 Eh    ::
         :: gradient norm              0.118024187454 Eh/a0 ::
         :: HOMO-LUMO gap              4.420856715462 eV    ::
         ::.................................................::
         :: SCC energy               -27.889552465452 Eh    ::
         :: -> isotropic ES            0.002058948028 Eh    ::
         :: -> anisotropic ES          0.005628031430 Eh    ::
         :: -> anisotropic XC          0.018330639089 Eh    ::
         :: -> dispersion             -0.020422182593 Eh    ::
         :: repulsion energy           0.401327689769 Eh    ::
         :: add. restraining           0.000000000000 Eh    ::
         :: total charge              -0.000000000000 e     ::
         :::::::::::::::::::::::::::::::::::::::::::::::::::::

      ----------------------------------------------------------- 
     |                   =====================                   |
     |                        A N C O P T                        |
     |                   =====================                   |
     |               Approximate Normal Coordinate               |
     |                Rational Function Optimizer                |
      ----------------------------------------------------------- 

          ...................................................
          :                      SETUP                      :
          :.................................................:
          :   optimization level            normal          :
          :   max. optcycles                   200          :
          :   ANC micro-cycles                  20          :
          :   degrees of freedom                60          :
          :.................................................:
          :   RF solver                   davidson          :
          :   write xtbopt.log                true          :
          :   linear?                        false          :
          :   energy convergence         0.5000000E-05 Eh   :
          :   grad. convergence          0.1000000E-02 Eh/α :
          :   maximium RF displ.         1.0000000          :
          :   Hlow (freq-cutoff)         0.1000000E-01      :
          :   Hmax (freq-cutoff)         5.0000000          :
          :   S6 in model hess.         20.0000000          :
          ...................................................

generating ANC from model Hessian ...
Using Lindh-Hessian (1995)
 Shifting diagonal of input Hessian by   5.497387668324791E-003
 Lowest  eigenvalues of input Hessian
    0.000000    0.000000    0.000000    0.000000    0.000000    0.000000
    0.010000    0.010469    0.016274    0.018778    0.021480    0.023211
    0.028831    0.040970    0.044309    0.047968    0.049098    0.053904
 Highest eigenvalues
    1.300975    1.309628    1.493941    1.503738    1.694527    1.702902
 

........................................................................
.............................. CYCLE    1 ..............................
........................................................................
   1    -27.8895525 -0.278896E+02  0.781E-05    4.42       0.0  T
   2    -27.8895525 -0.160192E-10  0.434E-05    4.42     491.4  T
   3    -27.8895525  0.233769E-11  0.250E-05    4.42     851.4  T
     SCC iter.                  ...        0 min,  0.002 sec
     gradient                   ...        0 min,  0.004 sec
 * total energy  :   -27.4881048 Eh     change       -0.1614673E-09 Eh
   gradient norm :     0.1180249 Eh/α   predicted     0.0000000E+00 (-100.00%)
   displ. norm   :     0.2863375 α      lambda       -0.1478094E-01
   maximum displ.:     0.1250156 α      in ANC's #2, #34, #4, ...

........................................................................
.............................. CYCLE    2 ..............................
........................................................................
   1    -27.9356223 -0.279356E+02  0.270E-01    4.82       0.0  T
   2    -27.9357251 -0.102803E-03  0.158E-01    4.82       1.0  T
   3    -27.9357215  0.357995E-05  0.423E-02    4.83       1.0  T
   4    -27.9357303 -0.873417E-05  0.107E-02    4.83       2.0  T
   5    -27.9357322 -0.193234E-05  0.373E-03    4.83       5.7  T
   6    -27.9357322 -0.494777E-07  0.146E-03    4.83      14.6  T
   7    -27.9357323 -0.157632E-07  0.262E-04    4.83      81.5  T
   8    -27.9357323 -0.956000E-10  0.137E-04    4.83     155.2  T
     SCC iter.                  ...        0 min,  0.004 sec
     gradient                   ...        0 min,  0.004 sec
 * total energy  :   -27.4977711 Eh     change       -0.9666323E-02 Eh
   gradient norm :     0.0335075 Eh/α   predicted    -0.8001988E-02 ( -17.22%)
   displ. norm   :     0.2989564 α      lambda       -0.2942573E-02
   maximum displ.:     0.2169390 α      in ANC's #2, #4, #5, ...

........................................................................
.............................. CYCLE    3 ..............................
........................................................................
   1    -27.9503271 -0.279503E+02  0.233E-01    4.98       0.0  T
   2    -27.9503495 -0.223901E-04  0.136E-01    4.98       1.0  T
   3    -27.9503462  0.329760E-05  0.214E-02    4.98       1.0  T
   4    -27.9503506 -0.436121E-05  0.755E-03    4.98       2.8  T
   5    -27.9503515 -0.947450E-06  0.220E-03    4.98       9.7  T
   6    -27.9503515 -0.108995E-07  0.851E-04    4.98      25.1  T
   7    -27.9503516 -0.736182E-08  0.320E-04    4.98      66.6  T
     SCC iter.                  ...        0 min,  0.003 sec
     gradient                   ...        0 min,  0.003 sec
 * total energy  :   -27.4995127 Eh     change       -0.1741568E-02 Eh
   gradient norm :     0.0114457 Eh/α   predicted    -0.1602785E-02 (  -7.97%)
   displ. norm   :     0.1921523 α      lambda       -0.5688110E-03
   maximum displ.:     0.1673154 α      in ANC's #2, #4, #3, ...

........................................................................
.............................. CYCLE    4 ..............................
........................................................................
   1    -27.9501379 -0.279501E+02  0.116E-01    4.97       0.0  T
   2    -27.9501388 -0.862418E-06  0.684E-02    4.97       1.0  T
   3    -27.9501358  0.297407E-05  0.130E-02    4.97       1.6  T
   4    -27.9501391 -0.331571E-05  0.233E-03    4.97       9.1  T
   5    -27.9501392 -0.714251E-07  0.868E-04    4.97      24.6  T
   6    -27.9501392 -0.613074E-09  0.239E-04    4.97      89.3  T
     SCC iter.                  ...        0 min,  0.003 sec
     gradient                   ...        0 min,  0.003 sec
 * total energy  :   -27.4999015 Eh     change       -0.3888061E-03 Eh
   gradient norm :     0.0076601 Eh/α   predicted    -0.2949118E-03 ( -24.15%)
   displ. norm   :     0.1213659 α      lambda       -0.1890083E-03
   maximum displ.:     0.1051580 α      in ANC's #2, #1, #4, ...

........................................................................
.............................. CYCLE    5 ..............................
........................................................................
   1    -27.9497066 -0.279497E+02  0.595E-02    4.96       0.0  T
   2    -27.9497068 -0.184191E-06  0.351E-02    4.96       1.0  T
   3    -27.9497064  0.412540E-06  0.521E-03    4.96       4.1  T
   4    -27.9497069 -0.507558E-06  0.108E-03    4.96      19.8  T
   5    -27.9497069 -0.543264E-08  0.498E-04    4.96      42.8  T
   6    -27.9497069 -0.117866E-08  0.153E-04    4.96     139.5  T
     SCC iter.                  ...        0 min,  0.003 sec
     gradient                   ...        0 min,  0.003 sec
 * total energy  :   -27.5000173 Eh     change       -0.1158219E-03 Eh
   gradient norm :     0.0023093 Eh/α   predicted    -0.9589709E-04 ( -17.20%)
   displ. norm   :     0.0519468 α      lambda       -0.2635740E-04
   maximum displ.:     0.0408048 α      in ANC's #2, #1, #4, ...

........................................................................
.............................. CYCLE    6 ..............................
........................................................................
   1    -27.9497112 -0.279497E+02  0.249E-02    4.95       0.0  T
   2    -27.9497113 -0.554063E-07  0.147E-02    4.96       1.5  T
   3    -27.9497112  0.105470E-06  0.252E-03    4.95       8.4  T
   4    -27.9497113 -0.122384E-06  0.577E-04    4.96      37.0  T
   5    -27.9497113 -0.455309E-08  0.245E-04    4.96      86.9  T
     SCC iter.                  ...        0 min,  0.002 sec
     gradient                   ...        0 min,  0.003 sec
 * total energy  :   -27.5000347 Eh     change       -0.1737742E-04 Eh
   gradient norm :     0.0009273 Eh/α   predicted    -0.1321601E-04 ( -23.95%)
   displ. norm   :     0.0458497 α      lambda       -0.7968735E-05
   maximum displ.:     0.0357071 α      in ANC's #1, #2, #20, ...

........................................................................
.............................. CYCLE    7 ..............................
........................................................................
   1    -27.9501210 -0.279501E+02  0.173E-02    4.96       0.0  T
   2    -27.9501211 -0.307280E-07  0.101E-02    4.96       2.1  T
   3    -27.9501210  0.736333E-07  0.222E-03    4.96       9.6  T
   4    -27.9501211 -0.839544E-07  0.447E-04    4.96      47.7  T
   5    -27.9501211 -0.288026E-08  0.167E-04    4.96     127.8  T
     SCC iter.                  ...        0 min,  0.002 sec
     gradient                   ...        0 min,  0.003 sec
 * total energy  :   -27.5000407 Eh     change       -0.6055804E-05 Eh
   gradient norm :     0.0009124 Eh/α   predicted    -0.3991967E-05 ( -34.08%)
   displ. norm   :     0.0150232 α      lambda       -0.2077693E-05
   maximum displ.:     0.0133744 α      in ANC's #1, #3, #6, ...

........................................................................
.............................. CYCLE    8 ..............................
........................................................................
   1    -27.9500758 -0.279501E+02  0.873E-03    4.96       0.0  T
   2    -27.9500758 -0.473710E-08  0.512E-03    4.96       4.2  T
   3    -27.9500758  0.311006E-07  0.140E-03    4.96      15.2  T
   4    -27.9500758 -0.350609E-07  0.112E-04    4.96     189.5  T
   5    -27.9500758 -0.103242E-09  0.684E-05    4.96     311.5  T
     SCC iter.                  ...        0 min,  0.002 sec
     gradient                   ...        0 min,  0.003 sec
 * total energy  :   -27.5000426 Eh     change       -0.1858319E-05 Eh
   gradient norm :     0.0004267 Eh/α   predicted    -0.1042192E-05 ( -43.92%)
   displ. norm   :     0.0134129 α      lambda       -0.1183017E-05
   maximum displ.:     0.0109027 α      in ANC's #1, #2, #3, ...

   *** GEOMETRY OPTIMIZATION CONVERGED AFTER 8 ITERATIONS ***

------------------------------------------------------------------------
 total energy gain   :        -0.0119378 Eh       -7.4911 kcal/mol
 total RMSD          :         0.1871356 a0        0.0990 Å
 total power (kW/mol):        -3.9178398 (step)  -71.9475 (real)
------------------------------------------------------------------------

 ANCopt (total)                0 d,  0 h,  0 min,  0.436 sec
 optimizer setup                ...        0 min,  0.171 sec ( 39.162%)
 model hessian                  ...        0 min,  0.018 sec (  4.109%)
 ANC generation                 ...        0 min,  0.000 sec (  0.082%)
 coordinate transformation      ...        0 min,  0.000 sec (  0.036%)
 single point calculation       ...        0 min,  0.058 sec ( 13.281%)
 optimization log               ...        0 min,  0.001 sec (  0.221%)
 hessian update                 ...        0 min,  0.000 sec (  0.017%)
 rational function              ...        0 min,  0.187 sec ( 42.978%)

================
 final structure:
================
22
 xtb: 6.5.1 (579679a)
C           -3.75465935295868        0.20470761834710        0.66943402102467
C           -3.25464697695117        0.08921566872602       -0.77475387023240
C           -2.08444987786276        1.03639308743216       -0.73073255062603
C           -1.55558482973825        0.95898012449356        0.48268997182729
C           -2.36460559921347       -0.03896322151618        1.27077663726449
H           -4.48732634413732       -0.55436981867595        0.94079831068370
H           -4.14775047386256        1.19413372671375        0.90103641460250
H           -3.97604607533832        0.25166863987742       -1.57208332671250
H           -1.73416527254929        1.60157536370831       -1.57500479852956
H           -0.68072844198063        1.45858630524354        0.85671947256208
H           -2.27140948228547        0.01975271266543        2.35329206673013
C           -2.64366643543689       -1.34129002024744       -0.74504430869350
C           -2.05272810435480       -1.43977826545835        0.68382914937767
C           -0.56233609644181       -1.77547379980260        0.51363120229253
C           -0.34892371317770       -1.75083741637346       -0.97008775022391
C           -1.46490476603285       -1.53731338909419       -1.64509367381552
H           -3.42610858788436       -2.07999595982903       -0.93945047530849
H           -2.55982312030911       -2.19835848130231        1.28225650972833
H           -0.32449434817505       -2.76368455678122        0.91624309224734
H            0.08204005573769       -1.05395005775215        1.01908775765798
H            0.62878249774416       -1.90799878815162       -1.39393585409697
H           -1.56060465479135       -1.48437947222282       -2.71611799775986
 
 Bond Distances (Angstroems)
 ---------------------------
C1-C2=1.5327         C1-C5=1.5340         C1-H6=1.0893         C1-H7=1.0896         C2-C1=1.5327         C2-C3=1.5061         
C2-H8=1.0874         C2-C12=1.5558        C3-C2=1.5061         C3-C4=1.3259         C3-H9=1.0747         C4-C3=1.3259         
C4-C5=1.5071         C4-H10=1.0747        C5-C1=1.5340         C5-C4=1.5071         C5-H11=1.0881        C5-C13=1.5505        
H6-C1=1.0893         H7-C1=1.0896         H8-C2=1.0874         H9-C3=1.0747         H10-C4=1.0747        H11-C5=1.0881        
C12-C2=1.5558        C12-C13=1.5494       C12-C16=1.4960       C12-H17=1.0935       C13-C5=1.5505        C13-C12=1.5494       
C13-C14=1.5372       C13-H18=1.0912       C14-C13=1.5372       C14-C15=1.4992       C14-H19=1.0933       C14-H20=1.0915       
C15-C14=1.4992       C15-C16=1.3216       C15-H21=1.0772       C16-C12=1.4960       C16-C15=1.3216       C16-H22=1.0766       
H17-C12=1.0935       H18-C13=1.0912       H19-C14=1.0933       H20-C14=1.0915       H21-C15=1.0772       H22-C16=1.0766       
 C  H  Rav=1.0856 sigma=0.0072  Rmin=1.0747  Rmax=1.0935    12
 C  C  Rav=1.4930 sigma=0.0782  Rmin=1.3216  Rmax=1.5558    12
 
 selected bond angles (degree)
 --------------------
C5-C1-C2= 93.54                H6-C1-C2=113.68                H6-C1-C5=113.65                H7-C1-C2=112.73                
H7-C1-C5=112.82                H7-C1-H6=109.71                C3-C2-C1=100.28                H8-C2-C1=117.59                
H8-C2-C3=116.29                C12-C2-C1=100.34               C12-C2-C3=105.82               C12-C2-H8=114.32               
C4-C3-C2=107.45                H9-C3-C2=124.13                H9-C3-C4=128.29                C5-C4-C3=107.64                
H10-C4-C3=128.03               H10-C4-C5=124.25               C4-C5-C1=100.15                H11-C5-C1=117.32               
H11-C5-C4=116.01               C13-C5-C1=100.22               C13-C5-C4=107.00               C13-C5-H11=114.09              
 
 selected dihedral angles (degree)
 ---------------------------------
C3-C2-C1-C5=309.65            C3-C2-C1-H6=191.87            C3-C2-C1-H7= 66.22            H8-C2-C1-C5=182.58            
H8-C2-C1-H6= 64.81            H8-C2-C1-H7=299.15            C12-C2-C1-C5= 57.99           C12-C2-C1-H6=300.22           
C12-C2-C1-H7=174.56           C4-C3-C2-C1= 33.65            C4-C3-C2-H8=161.58            C4-C3-C2-C12=289.71           
H9-C3-C2-C1=209.80            H9-C3-C2-H8=337.73            H9-C3-C2-C12=105.86           C5-C4-C3-C2=359.90            
C5-C4-C3-H9=183.96            H10-C4-C3-C2=176.82           H10-C4-C3-H9=  0.88           C4-C5-C1-C2= 50.20            
C4-C5-C1-H6=168.01            C4-C5-C1-H7=293.71            H11-C5-C1-C2=176.64           H11-C5-C1-H6=294.44           
H11-C5-C1-H7= 60.15           C13-C5-C1-C2=300.69           C13-C5-C1-H6= 58.49           C13-C5-C1-H7=184.20           
C1-C5-C4-C3=326.57            C1-C5-C4-H10=149.50           H11-C5-C4-C3=199.25           H11-C5-C4-H10= 22.18          
C13-C5-C4-C3= 70.64           C13-C5-C4-H10=253.58          
           -------------------------------------------------
          |                Final Singlepoint                |
           -------------------------------------------------

          ...................................................
          :                      SETUP                      :
          :.................................................:
          :  # basis functions                  52          :
          :  # atomic orbitals                  52          :
          :  # shells                           32          :
          :  # electrons                        52          :
          :  max. iterations                   250          :
          :  Hamiltonian                  GFN2-xTB          :
          :  restarted?                      false          :
          :  GBSA solvation                  false          :
          :  PC potential                    false          :
          :  electronic temp.          300.0000000     K    :
          :  accuracy                    1.0000000          :
          :  -> integral cutoff          0.2500000E+02      :
          :  -> integral neglect         0.1000000E-07      :
          :  -> SCF convergence          0.1000000E-05 Eh   :
          :  -> wf. convergence          0.1000000E-03 e    :
          :  Broyden damping             0.4000000          :
          ...................................................

 iter      E             dE          RMSdq      gap      omega  full diag
   1    -27.9500758 -0.279501E+02  0.317E-05    4.96       0.0  T
   2    -27.9500758  0.114397E-11  0.309E-05    4.96     690.3  T
   3    -27.9500758 -0.171347E-10  0.754E-06    4.96    2827.0  T

   *** convergence criteria satisfied after 3 iterations ***

         #    Occupation            Energy/Eh            Energy/eV
      -------------------------------------------------------------
         1        2.0000           -0.6530265             -17.7698
       ...           ...                  ...                  ...
        20        2.0000           -0.4391215             -11.9491
        21        2.0000           -0.4361004             -11.8669
        22        2.0000           -0.4266644             -11.6101
        23        2.0000           -0.4255630             -11.5802
        24        2.0000           -0.4163121             -11.3284
        25        2.0000           -0.3822843             -10.4025
        26        2.0000           -0.3805206             -10.3545 (HOMO)
        27                         -0.1983405              -5.3971 (LUMO)
        28                         -0.1940522              -5.2804
        29                          0.0383076               1.0424
        30                          0.0522111               1.4207
        31                          0.0563672               1.5338
       ...                                ...                  ...
        52                          0.6782666              18.4566
      -------------------------------------------------------------
                  HL-Gap            0.1821800 Eh            4.9574 eV
             Fermi-level           -0.2894306 Eh           -7.8758 eV

 SCC (total)                   0 d,  0 h,  0 min,  0.006 sec
 SCC setup                      ...        0 min,  0.000 sec (  1.441%)
 Dispersion                     ...        0 min,  0.000 sec (  1.015%)
 classical contributions        ...        0 min,  0.000 sec (  0.297%)
 integral evaluation            ...        0 min,  0.001 sec ( 17.297%)
 iterations                     ...        0 min,  0.002 sec ( 28.700%)
 molecular gradient             ...        0 min,  0.003 sec ( 48.910%)
 printout                       ...        0 min,  0.000 sec (  1.800%)

         :::::::::::::::::::::::::::::::::::::::::::::::::::::
         ::                     SUMMARY                     ::
         :::::::::::::::::::::::::::::::::::::::::::::::::::::
         :: total energy             -27.500042577850 Eh    ::
         :: gradient norm              0.000426753674 Eh/a0 ::
         :: HOMO-LUMO gap              4.957371271131 eV    ::
         ::.................................................::
         :: SCC energy               -27.950075849076 Eh    ::
         :: -> isotropic ES            0.002282390958 Eh    ::
         :: -> anisotropic ES          0.005006881311 Eh    ::
         :: -> anisotropic XC          0.017194872397 Eh    ::
         :: -> dispersion             -0.020680229368 Eh    ::
         :: repulsion energy           0.449919552348 Eh    ::
         :: add. restraining           0.000000000000 Eh    ::
         :: total charge              -0.000000000000 e     ::
         :::::::::::::::::::::::::::::::::::::::::::::::::::::

           -------------------------------------------------
          |                Property Printout                |
           -------------------------------------------------

    * Orbital Energies and Occupations

         #    Occupation            Energy/Eh            Energy/eV
      -------------------------------------------------------------
         1        2.0000           -0.6530265             -17.7698
       ...           ...                  ...                  ...
        14        2.0000           -0.4836536             -13.1609
        15        2.0000           -0.4712490             -12.8233
        16        2.0000           -0.4611402             -12.5483
        17        2.0000           -0.4563950             -12.4191
        18        2.0000           -0.4494340             -12.2297
        19        2.0000           -0.4420249             -12.0281
        20        2.0000           -0.4391215             -11.9491
        21        2.0000           -0.4361004             -11.8669
        22        2.0000           -0.4266644             -11.6101
        23        2.0000           -0.4255630             -11.5802
        24        2.0000           -0.4163121             -11.3284
        25        2.0000           -0.3822843             -10.4025
        26        2.0000           -0.3805206             -10.3545 (HOMO)
        27                         -0.1983405              -5.3971 (LUMO)
        28                         -0.1940522              -5.2804
        29                          0.0383076               1.0424
        30                          0.0522111               1.4207
        31                          0.0563672               1.5338
        32                          0.0937961               2.5523
        33                          0.1042698               2.8373
        34                          0.1069750               2.9109
        35                          0.1179859               3.2106
        36                          0.1259305               3.4267
        37                          0.1405372               3.8242
       ...                                ...                  ...
        52                          0.6782666              18.4566
      -------------------------------------------------------------
                  HL-Gap            0.1821800 Eh            4.9574 eV
             Fermi-level           -0.2894306 Eh           -7.8758 eV

     #   Z          covCN         q      C6AA      α(0)
     1   6 C        3.923    -0.057    21.527     6.594
     2   6 C        4.028    -0.016    20.780     6.476
     3   6 C        2.992    -0.038    28.923     8.822
     4   6 C        2.993    -0.038    28.943     8.825
     5   6 C        4.028    -0.018    20.818     6.481
     6   1 H        0.925     0.030     2.592     2.518
     7   1 H        0.925     0.032     2.563     2.504
     8   1 H        0.925     0.025     2.658     2.549
     9   1 H        0.926     0.026     2.643     2.542
    10   1 H        0.926     0.025     2.664     2.552
    11   1 H        0.925     0.024     2.672     2.556
    12   6 C        3.933    -0.020    20.870     6.492
    13   6 C        3.921    -0.022    20.910     6.499
    14   6 C        3.836    -0.058    21.588     6.610
    15   6 C        2.936    -0.039    28.968     8.827
    16   6 C        2.931    -0.041    29.023     8.835
    17   1 H        0.924     0.031     2.579     2.511
    18   1 H        0.924     0.027     2.634     2.538
    19   1 H        0.924     0.035     2.512     2.479
    20   1 H        0.924     0.041     2.430     2.438
    21   1 H        0.926     0.026     2.645     2.543
    22   1 H        0.926     0.026     2.639     2.540

 Mol. C6AA /au·bohr⁶  :       4668.478946
 Mol. C8AA /au·bohr⁸  :     109370.978616
 Mol. α(0) /au        :        104.731694


Wiberg/Mayer (AO) data.
largest (>0.10) Wiberg bond orders for each atom

 ---------------------------------------------------------------------------
     #   Z sym  total        # sym  WBO       # sym  WBO       # sym  WBO
 ---------------------------------------------------------------------------
     1   6 C    3.995 --     2 C    0.988     5 C    0.987     6 H    0.978
                             7 H    0.978
     2   6 C    3.993 --     3 C    1.013     1 C    0.988     8 H    0.973
                            12 C    0.940
     3   6 C    3.987 --     4 C    1.920     2 C    1.013     9 H    0.972
     4   6 C    3.987 --     3 C    1.920     5 C    1.012    10 H    0.972
     5   6 C    3.993 --     4 C    1.012     1 C    0.987    11 H    0.973
                            13 C    0.960
     6   1 H    0.999 --     1 C    0.978
     7   1 H    0.999 --     1 C    0.978
     8   1 H    0.999 --     2 C    0.973
     9   1 H    0.999 --     3 C    0.972
    10   1 H    0.999 --     4 C    0.972
    11   1 H    0.999 --     5 C    0.973
    12   6 C    3.994 --    16 C    1.017    13 C    0.984    17 H    0.959
                             2 C    0.940
    13   6 C    3.994 --    14 C    0.995    12 C    0.984    18 H    0.974
                             5 C    0.960
    14   6 C    3.998 --    15 C    1.024    13 C    0.995    19 H    0.964
                            20 H    0.963
    15   6 C    3.990 --    16 C    1.925    14 C    1.024    21 H    0.970
    16   6 C    3.990 --    15 C    1.925    12 C    1.017    22 H    0.969
    17   1 H    0.999 --    12 C    0.959
    18   1 H    0.999 --    13 C    0.974
    19   1 H    0.999 --    14 C    0.964
    20   1 H    0.998 --    14 C    0.963
    21   1 H    0.999 --    15 C    0.970
    22   1 H    0.999 --    16 C    0.969
 ---------------------------------------------------------------------------

Topologies differ in total number of bonds
Writing topology from bond orders to xtbtopo.mol

molecular dipole:
                 x           y           z       tot (Debye)
 q only:       -0.066      -0.076       0.117
   full:       -0.060      -0.113       0.114       0.437
molecular quadrupole (traceless):
                xx          xy          yy          xz          yz          zz
 q only:        1.065       0.495      -0.788      -0.224      -0.591      -0.276
  q+dip:        1.504       1.909      -2.330       0.878      -1.467       0.826
   full:        1.207       1.336      -1.279       0.225      -1.018       0.072

           -------------------------------------------------
          |                Geometry Summary                 |
           -------------------------------------------------

      molecular mass/u    :      132.2026480
   center of mass at/Å    :       -2.0113484      -0.5655643      -0.1125860
  moments of inertia/u·Å² :        0.2014392E+03   0.3320672E+03   0.3612028E+03
rotational constants/cm⁻¹ :        0.8368594E-01   0.5076572E-01   0.4667082E-01

 * 18 selected distances

     #   Z          #   Z                                           value/Å
     1   6 C        2   6 C                                       1.5326545
     3   6 C        4   6 C                                       1.3259282
     1   6 C        5   6 C                                       1.5340268
     1   6 C        6   1 H                                       1.0893293
     1   6 C        7   1 H                                       1.0895525
     2   6 C        8   1 H                                       1.0874475
     3   6 C        9   1 H                                       1.0746749
     4   6 C       10   1 H                                       1.0746526 (min)
     5   6 C       11   1 H                                       1.0881052
     5   6 C       13   6 C                                       1.5505026 (max)
    13   6 C       14   6 C                                       1.5371817
    15   6 C       16   6 C                                       1.3216049
    12   6 C       17   1 H                                       1.0934789
    13   6 C       18   1 H                                       1.0911942
    14   6 C       19   1 H                                       1.0932638
    14   6 C       20   1 H                                       1.0914686
    15   6 C       21   1 H                                       1.0771521
    16   6 C       22   1 H                                       1.0765936

 * 2 distinct bonds (by element types)

   Z      Z             #   av. dist./Å        max./Å        min./Å
   1 H    6 C          12     1.0855761     1.0934789     1.0746526
   6 C    6 C           6     1.4669831     1.5505026     1.3216049


optimized geometry written to: xtbopt.xyz


           -------------------------------------------------
          | TOTAL ENERGY              -27.500042577850 Eh   |
          | GRADIENT NORM               0.000426753674 Eh/α |
          | HOMO-LUMO GAP               4.957371271131 eV   |
           -------------------------------------------------

------------------------------------------------------------------------
 * finished run on 2023/06/13 at 15:45:13.205     
------------------------------------------------------------------------
 total:
 * wall-time:     0 d,  0 h,  0 min,  2.702 sec
 *  cpu-time:     0 d,  0 h,  0 min,  1.081 sec
 * ratio c/w:     0.400 speedup
 SCF:
 * wall-time:     0 d,  0 h,  0 min,  0.618 sec
 *  cpu-time:     0 d,  0 h,  0 min,  0.202 sec
 * ratio c/w:     0.326 speedup
 ANC optimizer:
 * wall-time:     0 d,  0 h,  0 min,  0.442 sec
 *  cpu-time:     0 d,  0 h,  0 min,  0.504 sec
 * ratio c/w:     1.139 speedup

