22
 energy: -27.500042577850 gnorm: 0.000426753674 xtb: 6.5.1 (579679a)
C           -3.75465935295868        0.20470761834710        0.66943402102467
C           -3.25464697695117        0.08921566872602       -0.77475387023240
C           -2.08444987786276        1.03639308743216       -0.73073255062603
C           -1.55558482973825        0.95898012449356        0.48268997182729
C           -2.36460559921347       -0.03896322151618        1.27077663726449
H           -4.48732634413732       -0.55436981867595        0.94079831068370
H           -4.14775047386256        1.19413372671375        0.90103641460250
H           -3.97604607533832        0.25166863987742       -1.57208332671250
H           -1.73416527254929        1.60157536370831       -1.57500479852956
H           -0.68072844198063        1.45858630524354        0.85671947256208
H           -2.27140948228547        0.01975271266543        2.35329206673013
C           -2.64366643543689       -1.34129002024744       -0.74504430869350
C           -2.05272810435480       -1.43977826545835        0.68382914937767
C           -0.56233609644181       -1.77547379980260        0.51363120229253
C           -0.34892371317770       -1.75083741637346       -0.97008775022391
C           -1.46490476603285       -1.53731338909419       -1.64509367381552
H           -3.42610858788436       -2.07999595982903       -0.93945047530849
H           -2.55982312030911       -2.19835848130231        1.28225650972833
H           -0.32449434817505       -2.76368455678122        0.91624309224734
H            0.08204005573769       -1.05395005775215        1.01908775765798
H            0.62878249774416       -1.90799878815162       -1.39393585409697
H           -1.56060465479135       -1.48437947222282       -2.71611799775986
