22
 energy: -27.488104767067 gnorm: 0.118024941884 xtb: 6.5.1 (579679a)
C           -3.72929000000000        0.20975000000000        0.66018000000000
C           -3.23694000000000        0.07346000000000       -0.78198000000000
C           -2.13123000000000        1.09160000000000       -0.75181000000000
C           -1.56435000000000        1.01579000000000        0.49690000000000
C           -2.33279000000000       -0.03262000000000        1.24726000000000
H           -4.48756000000000       -0.55169000000000        0.95633000000000
H           -4.13289000000000        1.22436000000000        0.89092000000000
H           -3.94033000000000        0.22406000000000       -1.62785000000000
H           -1.87454000000000        1.81072000000000       -1.51789000000000
H           -0.79149000000000        1.66956000000000        0.87782000000000
H           -2.18898000000000        0.02570000000000        2.34683000000000
C           -2.62315000000000       -1.34934000000000       -0.74298000000000
C           -2.03352000000000       -1.44286000000000        0.67392000000000
C           -0.55335000000000       -1.83857000000000        0.52409000000000
C           -0.31887000000000       -1.81470000000000       -0.94892000000000
C           -1.46762000000000       -1.55368000000000       -1.65899000000000
H           -3.39912000000000       -2.13296000000000       -0.88997000000000
H           -2.59328000000000       -2.18588000000000        1.28718000000000
H           -0.38227000000000       -2.88147000000000        0.86609000000000
H            0.11767000000000       -1.14612000000000        1.07516000000000
H            0.63615000000000       -2.01499000000000       -1.41592000000000
H           -1.51639000000000       -1.51150000000000       -2.73888000000000
22
 energy: -27.497771090353 gnorm: 0.033507496904 xtb: 6.5.1 (579679a)
C           -3.73907819746086        0.19786878873261        0.66704615574061
C           -3.24581999931319        0.08221615388122       -0.77865332052311
C           -2.12186976408915        1.08219920172860       -0.73668934179558
C           -1.57480839813766        1.01105713794295        0.48034860314390
C           -2.33870448795847       -0.02697327164275        1.25529947851475
H           -4.47943643494057       -0.55793738828063        0.95587040796429
H           -4.13790323674238        1.19319201529490        0.89644972304672
H           -3.96169930324308        0.22764974076555       -1.59487304299100
H           -1.83429897542485        1.75141004912338       -1.53066176868039
H           -0.76435874834713        1.61575271587483        0.85223368756409
H           -2.21933285689168        0.02937354639604        2.34303031249324
C           -2.61953170712606       -1.33782026009365       -0.74730681748920
C           -2.03554477137597       -1.43364336073285        0.67857295798587
C           -0.56049454976871       -1.83038143029518        0.51605418788609
C           -0.33404472412456       -1.79717645818762       -0.96109929434969
C           -1.44961669266743       -1.55392387584233       -1.64729882634090
H           -3.40251420082066       -2.09183037879402       -0.92332237744940
H           -2.57346059253061       -2.17197035902714        1.28899623797772
H           -0.37877416480462       -2.84781589578766        0.89029127759009
H            0.11063713603961       -1.15445679874469        1.05687481999986
H            0.62547682425511       -1.98957514942813       -1.41249728974703
H           -1.50896215452707       -1.50859472288342       -2.72117577054092
22
 energy: -27.499512658346 gnorm: 0.011446298435 xtb: 6.5.1 (579679a)
C           -3.74876514263813        0.19651015066311        0.67161665290687
C           -3.25705533648595        0.08758539258183       -0.77699469007045
C           -2.11334650793273        1.06676988675023       -0.73220100628050
C           -1.57125737577505        0.99040260720389        0.47252218255298
C           -2.34866275425246       -0.02951131453382        1.26248353845039
H           -4.47505646317264       -0.56383336027835        0.95220049485627
H           -4.14574319795925        1.18353246331772        0.90231222792406
H           -3.98251849543873        0.23552890168379       -1.57344724526650
H           -1.79202670720919        1.68300956824418       -1.55934789347286
H           -0.71691955133048        1.53979591334571        0.84091357922261
H           -2.24420324924515        0.02838279514279        2.34386457260072
C           -2.62867132871620       -1.33397328097992       -0.74943208728815
C           -2.04143281685242       -1.43231968065132        0.67968610624329
C           -0.56074907962309       -1.80844181490520        0.51778550108199
C           -0.34171755516452       -1.77901079027455       -0.96318648804826
C           -1.44726694008782       -1.53931049424093       -1.64121155190710
H           -3.40874937779366       -2.07711138509546       -0.94319487856830
H           -2.56613630971519       -2.17375009506889        1.28382297117841
H           -0.36601702558608       -2.81303458234729        0.90587405398716
H            0.10707544948628       -1.12509287330854        1.04336195236620
H            0.62793038163450       -1.96140620213780       -1.39641047907059
H           -1.52285061614203       -1.48610180511116       -2.71352751339826
22
 energy: -27.499901464438 gnorm: 0.007660737667 xtb: 6.5.1 (579679a)
C           -3.75215998683193        0.19976216799889        0.67309292961151
C           -3.25991902866479        0.08922888984432       -0.77556460254280
C           -2.10025299597713        1.05026656013810       -0.73546919168165
C           -1.56111210069341        0.97228199652377        0.47168850889036
C           -2.35466613650586       -0.03292114035571        1.26626098355583
H           -4.47635105002218       -0.56351945812974        0.94946675616358
H           -4.14868219103670        1.18617473627353        0.90584016875359
H           -3.98937705403140        0.24308812173687       -1.56568082195161
H           -1.76712475534339        1.64083456964144       -1.57448086159837
H           -0.69266556837167        1.49495657118280        0.84127430704272
H           -2.25679625117029        0.02792952814647        2.34710094096312
C           -2.63539624264406       -1.33511916751855       -0.74897265193030
C           -2.04836608551701       -1.43536426002783        0.68195630133892
C           -0.56320594652390       -1.79471615009987        0.51785125346857
C           -0.34332676107082       -1.76369650892535       -0.96435764085926
C           -1.45272471340993       -1.53345892257545       -1.64257776955032
H           -3.41337628933951       -2.07647361386605       -0.94799488969315
H           -2.56646665507046       -2.18333950828052        1.28271712599819
H           -0.35154062688801       -2.79292924627613        0.91259065195639
H            0.09453516895390       -1.09525172957909        1.03504923625825
H            0.63332747576177       -1.93360840613293       -1.38779927836498
H           -1.53849220560322       -1.47550502971897       -2.71450145582860
22
 energy: -27.500017286291 gnorm: 0.002309420663 xtb: 6.5.1 (579679a)
C           -3.75294449202341        0.20343674221352        0.67205792961333
C           -3.25805383823861        0.08940236964939       -0.77506160578481
C           -2.09190200371495        1.04186630209881       -0.73512713816986
C           -1.55556756916874        0.96249527050160        0.47475384344133
C           -2.35874432749374       -0.03608927374950        1.26810122687385
H           -4.47949606407726       -0.56002974721200        0.94525561566818
H           -4.14941968439510        1.19072505500191        0.90520570772598
H           -3.98599204985319        0.24841825481770       -1.56596876221121
H           -1.75200286103443        1.61605909358979       -1.57872426873752
H           -0.68186333973473        1.46846072621887        0.84605612684220
H           -2.26272552868826        0.02588228722697        2.34955909530479
C           -2.64068092085734       -1.33874593804009       -0.74729057948321
C           -2.05244791012927       -1.43854522639553        0.68341717696886
C           -0.56417329275008       -1.78476964526899        0.51684235332276
C           -0.34568459565865       -1.75501386053114       -0.96623187890290
C           -1.45838269334082       -1.53165812835217       -1.64369328065493
H           -3.41834155369323       -2.08044835141201       -0.94653902818078
H           -2.56566545868886       -2.19264139561133        1.28194571571241
H           -0.33768507604832       -2.77800112220136        0.91557742583430
H            0.08519343644671       -1.07164083193791        1.02808231652529
H            0.63324439100494       -1.91799876930622       -1.38574667494774
H           -1.55080456786266       -1.47254381130030       -2.71498131676034
22
 energy: -27.500034663709 gnorm: 0.000927326992 xtb: 6.5.1 (579679a)
C           -3.75388476546077        0.20434729202936        0.67122663256473
C           -3.25692543410054        0.08944876559265       -0.77469740186366
C           -2.08816570548745        1.03848975888789       -0.73380545225545
C           -1.55509951721069        0.95998285947744        0.47792752140041
C           -2.36152052820829       -0.03755008817623        1.26917764116751
H           -4.48329519768070       -0.55744754575681        0.94357963404141
H           -4.14920911578263        1.19250848825207        0.90396966088189
H           -3.98181082185094        0.25034475587326       -1.56870947580200
H           -1.74319786214589        1.60616901206652       -1.57890673040851
H           -0.67971536602771        1.46048965288145        0.84997146192643
H           -2.26566422361369        0.02357928041387        2.35118855668460
C           -2.64240838896262       -1.33982010126345       -0.74610730700467
C           -2.05313781527182       -1.43937890477104        0.68383087196790
C           -0.56382480558242       -1.78049974895711        0.51557902281726
C           -0.34708794792811       -1.75208250644536       -0.96783164937232
C           -1.46135065765345       -1.53300731328302       -1.64429476673485
H           -3.42150564010551       -2.08088755337522       -0.94362292564955
H           -2.56386710080439       -2.19569111891037        1.28218455404315
H           -0.33082727813462       -2.77125104109635        0.91577446807364
H            0.08233472860528       -1.06257106401223        1.02440993647105
H            0.63186343643606       -1.91127034872119       -1.38806680024277
H           -1.55583999302909       -1.47528253070614       -2.71528745270622
22
 energy: -27.500040719513 gnorm: 0.000912431700 xtb: 6.5.1 (579679a)
C           -3.75449847344007        0.20469302948872        0.66982812999690
C           -3.25522971643208        0.08897943284899       -0.77463066625960
C           -2.08523678685848        1.03630906593546       -0.73137548532093
C           -1.55467330212307        0.95808182650252        0.48131533261070
C           -2.36416486861983       -0.03871270462557        1.27044134296850
H           -4.48707111657550       -0.55459193318203        0.94146577353916
H           -4.14788515050446        1.19397052195589        0.90165504434324
H           -3.97701127714361        0.25129622505355       -1.57179046741814
H           -1.73658233240716        1.60115808475182       -1.57570670633114
H           -0.67884525907427        1.45618258664082        0.85443976540984
H           -2.26967223813928        0.02079494937184        2.35298971608876
C           -2.64362831678775       -1.34125359363273       -0.74525624237079
C           -2.05320503609709       -1.43969701756972        0.68382541462874
C           -0.56296508510322       -1.77602889107470        0.51414382522419
C           -0.34859883915279       -1.75025100544878       -0.96954315343258
C           -1.46414448375570       -1.53577473147309       -1.64498437644778
H           -3.42515383089014       -2.08086360917545       -0.94033831418681
H           -2.56116136810859       -2.19776468749823        1.28235233886097
H           -0.32554168095573       -2.76449862561592        0.91612563762592
H            0.08130654970689       -1.05496269731168        1.02055205573813
H            0.62952838215396       -1.90723662202757       -1.39214335172353
H           -1.55970576969201       -1.48120960391413       -2.71587561354376
22
 energy: -27.500042577832 gnorm: 0.000426674531 xtb: 6.5.1 (579679a)
C           -3.75465935295868        0.20470761834710        0.66943402102467
C           -3.25464697695117        0.08921566872602       -0.77475387023240
C           -2.08444987786276        1.03639308743216       -0.73073255062603
C           -1.55558482973825        0.95898012449356        0.48268997182729
C           -2.36460559921347       -0.03896322151618        1.27077663726449
H           -4.48732634413732       -0.55436981867595        0.94079831068370
H           -4.14775047386256        1.19413372671375        0.90103641460250
H           -3.97604607533832        0.25166863987742       -1.57208332671250
H           -1.73416527254929        1.60157536370831       -1.57500479852956
H           -0.68072844198063        1.45858630524354        0.85671947256208
H           -2.27140948228547        0.01975271266543        2.35329206673013
C           -2.64366643543689       -1.34129002024744       -0.74504430869350
C           -2.05272810435480       -1.43977826545835        0.68382914937767
C           -0.56233609644181       -1.77547379980260        0.51363120229253
C           -0.34892371317770       -1.75083741637346       -0.97008775022391
C           -1.46490476603285       -1.53731338909419       -1.64509367381552
H           -3.42610858788436       -2.07999595982903       -0.93945047530849
H           -2.55982312030911       -2.19835848130231        1.28225650972833
H           -0.32449434817505       -2.76368455678122        0.91624309224734
H            0.08204005573769       -1.05395005775215        1.01908775765798
H            0.62878249774416       -1.90799878815162       -1.39393585409697
H           -1.56060465479135       -1.48437947222282       -2.71611799775986
