
                                 *****************
                                 * O   R   C   A *
                                 *****************

                                            #,                                       
                                            ###                                      
                                            ####                                     
                                            #####                                    
                                            ######                                   
                                           ########,                                 
                                     ,,################,,,,,                         
                               ,,#################################,,                 
                          ,,##########################################,,             
                       ,#########################################, ''#####,          
                    ,#############################################,,   '####,        
                  ,##################################################,,,,####,       
                ,###########''''           ''''###############################       
              ,#####''   ,,,,##########,,,,          '''####'''          '####       
            ,##' ,,,,###########################,,,                        '##       
           ' ,,###''''                  '''############,,,                           
         ,,##''                                '''############,,,,        ,,,,,,###''
      ,#''                                            '''#######################'''  
     '                                                          ''''####''''         
             ,#######,   #######,   ,#######,      ##                                
            ,#'     '#,  ##    ##  ,#'     '#,    #''#        ######   ,####,        
            ##       ##  ##   ,#'  ##            #'  '#       #        #'  '#        
            ##       ##  #######   ##           ,######,      #####,   #    #        
            '#,     ,#'  ##    ##  '#,     ,#' ,#      #,         ##   #,  ,#        
             '#######'   ##     ##  '#######'  #'      '#     #####' # '####'        



                  #######################################################
                  #                        -***-                        #
                  #          Department of theory and spectroscopy      #
                  #    Directorship and core code : Frank Neese         #
                  #        Max Planck Institute fuer Kohlenforschung    #
                  #                Kaiser Wilhelm Platz 1               #
                  #                 D-45470 Muelheim/Ruhr               #
                  #                      Germany                        #
                  #                                                     #
                  #                  All rights reserved                #
                  #                        -***-                        #
                  #######################################################


                         Program Version 5.0.2 -  RELEASE  -


 With contributions from (in alphabetic order):
   Daniel Aravena         : Magnetic Suceptibility
   Michael Atanasov       : Ab Initio Ligand Field Theory (pilot matlab implementation)
   Alexander A. Auer      : GIAO ZORA, VPT2 properties, NMR spectrum
   Ute Becker             : Parallelization
   Giovanni Bistoni       : ED, misc. LED, open-shell LED, HFLD
   Martin Brehm           : Molecular dynamics
   Dmytro Bykov           : SCF Hessian
   Vijay G. Chilkuri      : MRCI spin determinant printing, contributions to CSF-ICE
   Dipayan Datta          : RHF DLPNO-CCSD density
   Achintya Kumar Dutta   : EOM-CC, STEOM-CC
   Dmitry Ganyushin       : Spin-Orbit,Spin-Spin,Magnetic field MRCI
   Miquel Garcia          : C-PCM and meta-GGA Hessian, CC/C-PCM, Gaussian charge scheme
   Yang Guo               : DLPNO-NEVPT2, F12-NEVPT2, CIM, IAO-localization
   Andreas Hansen         : Spin unrestricted coupled pair/coupled cluster methods
   Benjamin Helmich-Paris : MC-RPA, TRAH-SCF, COSX integrals
   Lee Huntington         : MR-EOM, pCC
   Robert Izsak           : Overlap fitted RIJCOSX, COSX-SCS-MP3, EOM
   Marcus Kettner         : VPT2
   Christian Kollmar      : KDIIS, OOCD, Brueckner-CCSD(T), CCSD density, CASPT2, CASPT2-K
   Simone Kossmann        : Meta GGA functionals, TD-DFT gradient, OOMP2, MP2 Hessian
   Martin Krupicka        : Initial AUTO-CI
   Lucas Lang             : DCDCAS
   Marvin Lechner         : AUTO-CI (C++ implementation), FIC-MRCC
   Dagmar Lenk            : GEPOL surface, SMD
   Dimitrios Liakos       : Extrapolation schemes; Compound Job, initial MDCI parallelization
   Dimitrios Manganas     : Further ROCIS development; embedding schemes
   Dimitrios Pantazis     : SARC Basis sets
   Anastasios Papadopoulos: AUTO-CI, single reference methods and gradients
   Taras Petrenko         : DFT Hessian,TD-DFT gradient, ASA, ECA, R-Raman, ABS, FL, XAS/XES, NRVS
   Peter Pinski           : DLPNO-MP2, DLPNO-MP2 Gradient
   Christoph Reimann      : Effective Core Potentials
   Marius Retegan         : Local ZFS, SOC
   Christoph Riplinger    : Optimizer, TS searches, QM/MM, DLPNO-CCSD(T), (RO)-DLPNO pert. Triples
   Tobias Risthaus        : Range-separated hybrids, TD-DFT gradient, RPA, STAB
   Michael Roemelt        : Original ROCIS implementation
   Masaaki Saitow         : Open-shell DLPNO-CCSD energy and density
   Barbara Sandhoefer     : DKH picture change effects
   Avijit Sen             : IP-ROCIS
   Kantharuban Sivalingam : CASSCF convergence, NEVPT2, FIC-MRCI
   Bernardo de Souza      : ESD, SOC TD-DFT
   Georgi Stoychev        : AutoAux, RI-MP2 NMR, DLPNO-MP2 response
   Willem Van den Heuvel  : Paramagnetic NMR
   Boris Wezisla          : Elementary symmetry handling
   Frank Wennmohs         : Technical directorship


 We gratefully acknowledge several colleagues who have allowed us to
 interface, adapt or use parts of their codes:
   Stefan Grimme, W. Hujo, H. Kruse, P. Pracht,  : VdW corrections, initial TS optimization,
                  C. Bannwarth, S. Ehlert          DFT functionals, gCP, sTDA/sTD-DF
   Ed Valeev, F. Pavosevic, A. Kumar             : LibInt (2-el integral package), F12 methods
   Garnet Chan, S. Sharma, J. Yang, R. Olivares  : DMRG
   Ulf Ekstrom                                   : XCFun DFT Library
   Mihaly Kallay                                 : mrcc  (arbitrary order and MRCC methods)
   Jiri Pittner, Ondrej Demel                    : Mk-CCSD
   Frank Weinhold                                : gennbo (NPA and NBO analysis)
   Christopher J. Cramer and Donald G. Truhlar   : smd solvation model
   Lars Goerigk                                  : TD-DFT with DH, B97 family of functionals
   V. Asgeirsson, H. Jonsson                     : NEB implementation
   FAccTs GmbH                                   : IRC, NEB, NEB-TS, DLPNO-Multilevel, CI-OPT
                                                   MM, QMMM, 2- and 3-layer-ONIOM, Crystal-QMMM,
                                                   LR-CPCM, SF, NACMEs, symmetry and pop. for TD-DFT,
                                                   nearIR, NL-DFT gradient (VV10), updates on ESD,
                                                   ML-optimized integration grids
   S Lehtola, MJT Oliveira, MAL Marques          : LibXC Library
   Liviu Ungur et al                             : ANISO software


 Your calculation uses the libint2 library for the computation of 2-el integrals
 For citations please refer to: http://libint.valeyev.net

 Your ORCA version has been built with support for libXC version: 5.1.0
 For citations please refer to: https://tddft.org/programs/libxc/

 This ORCA versions uses:
   CBLAS   interface :  Fast vector & matrix operations
   LAPACKE interface :  Fast linear algebra routines
   SCALAPACK package :  Parallel linear algebra routines
   Shared memory     :  Shared parallel matrices
   BLAS/LAPACK       :  OpenBLAS 0.3.15  USE64BITINT DYNAMIC_ARCH NO_AFFINITY Haswell SINGLE_THREADED
        Core in use  :  Haswell
   Copyright (c) 2011-2014, The OpenBLAS Project


================================================================================

----- Orbital basis set information -----
Your calculation utilizes the basis: def2-TZVP
   F. Weigend and R. Ahlrichs, Phys. Chem. Chem. Phys. 7, 3297 (2005).

================================================================================
                                        WARNINGS
                       Please study these warnings very carefully!
================================================================================


WARNING: Post HF methods need fully converged wavefunctions
  ===> : Setting SCFConvForced true
         You can overwrite this default with %scf ConvForced false 


WARNING: MDCI localization with Augmented Hessian Foster-Boys
  ===> : Switching off randomization!

INFO   : the flag for use of the SHARK integral package has been found!

================================================================================
                                       INPUT FILE
================================================================================
NAME = CCSD_T.in
|  1> ! RHF CCSD(T) def2-TZVP TightSCF
|  2> 
|  3> %paras R= 4.0,0.5,35 end
|  4> 
|  5> * xyz 0 1
|  6> H 0 0 0
|  7> F 0 0 {R}
|  8> **                         ****END OF INPUT****
================================================================================

                       ******************************
                       * Parameter Scan Calculation *
                       ******************************

Trajectory settings:
    -> SCF surface will be mapped
    -> MDCI surface will be mapped

There are 1 parameter(s) to be scanned
             R: range=   4.00000000 ..   0.50000000  steps=   35
There will be   35 energy evaluations


         *************************************************************
                                TRAJECTORY STEP   1
                  R  :   4.00000000
         *************************************************************
---------------------------------
CARTESIAN COORDINATES (ANGSTROEM)
---------------------------------
  H      0.000000    0.000000    0.000000
  F      0.000000    0.000000    4.000000

----------------------------
CARTESIAN COORDINATES (A.U.)
----------------------------
  NO LB      ZA    FRAG     MASS         X           Y           Z
   0 H     1.0000    0     1.008    0.000000    0.000000    0.000000
   1 F     9.0000    0    18.998    0.000000    0.000000    7.558905

--------------------------------
INTERNAL COORDINATES (ANGSTROEM)
--------------------------------
 H      0   0   0     0.000000000000     0.00000000     0.00000000
 F      1   0   0     4.000000000000     0.00000000     0.00000000

---------------------------
INTERNAL COORDINATES (A.U.)
---------------------------
 H      0   0   0     0.000000000000     0.00000000     0.00000000
 F      1   0   0     7.558904535685     0.00000000     0.00000000

---------------------
BASIS SET INFORMATION
---------------------
There are 2 groups of distinct atoms

 Group   1 Type H   : 5s1p contracted to 3s1p pattern {311/1}
 Group   2 Type F   : 11s6p2d1f contracted to 5s3p2d1f pattern {62111/411/11/1}

Atom   0H    basis set group =>   1
Atom   1F    basis set group =>   2
------------------------------------------------------------------------------
                           ORCA GTO INTEGRAL CALCULATION
------------------------------------------------------------------------------
------------------------------------------------------------------------------
                   ___                                                        
                  /   \      - P O W E R E D   B Y -                         
                 /     \                                                     
                 |  |  |   _    _      __       _____    __    __             
                 |  |  |  | |  | |    /  \     |  _  \  |  |  /  |          
                  \  \/   | |  | |   /    \    | | | |  |  | /  /          
                 / \  \   | |__| |  /  /\  \   | |_| |  |  |/  /          
                |  |  |   |  __  | /  /__\  \  |    /   |      \           
                |  |  |   | |  | | |   __   |  |    \   |  |\   \          
                \     /   | |  | | |  |  |  |  | |\  \  |  | \   \       
                 \___/    |_|  |_| |__|  |__|  |_| \__\ |__|  \__/        
                                                                              
                      - O R C A' S   B I G   F R I E N D -                    
                                      &                                       
                       - I N T E G R A L  F E E D E R -                       
                                                                              
 v1 FN, 2020, v2 2021                                                         
------------------------------------------------------------------------------


Reading SHARK input file CCSD_T.SHARKINP.tmp ... ok
----------------------
SHARK INTEGRAL PACKAGE
----------------------

Number of atoms                             ...      2
Number of basis functions                   ...     37
Number of shells                            ...     15
Maximum angular momentum                    ...      3
Integral batch strategy                     ... SHARK/LIBINT Hybrid
RI-J (if used) integral strategy            ... SPLIT-RIJ (Revised 2003 algorithm where possible)
Printlevel                                  ...      1
Contraction scheme used                     ... SEGMENTED contraction
Coulomb Range Separation                    ... NOT USED
Exchange Range Separation                   ... NOT USED
Finite Nucleus Model                        ... NOT USED
Auxiliary Coulomb fitting basis             ... NOT available
Auxiliary J/K fitting basis                 ... NOT available
Auxiliary Correlation fitting basis         ... NOT available
Auxiliary 'external' fitting basis          ... NOT available
Integral threshold                          ...     2.500000e-11
Primitive cut-off                           ...     2.500000e-12
Primitive pair pre-selection threshold      ...     2.500000e-12

Calculating pre-screening integrals         ... done (  0.0 sec) Dimension = 15
Organizing shell pair data                  ... done (  0.2 sec)
Shell pair information
Total number of shell pairs                 ...       120
Shell pairs after pre-screening             ...       109
Total number of primitive shell pairs       ...       376
Primitive shell pairs kept                  ...       311
          la=0 lb=0:     33 shell pairs
          la=1 lb=0:     28 shell pairs
          la=1 lb=1:      9 shell pairs
          la=2 lb=0:     15 shell pairs
          la=2 lb=1:      7 shell pairs
          la=2 lb=2:      3 shell pairs
          la=3 lb=0:      7 shell pairs
          la=3 lb=1:      4 shell pairs
          la=3 lb=2:      2 shell pairs
          la=3 lb=3:      1 shell pairs

Calculating one electron integrals          ... done (  0.0 sec)
Calculating Nuclear repulsion               ... done (  0.1 sec) ENN=      1.190648718675 Eh

SHARK setup successfully completed in   1.2 seconds

Maximum memory used throughout the entire GTOINT-calculation: 12.4 MB
-------------------------------------------------------------------------------
                                 ORCA SCF
-------------------------------------------------------------------------------

------------
SCF SETTINGS
------------
Hamiltonian:
 Ab initio Hamiltonian  Method          .... Hartree-Fock(GTOs)


General Settings:
 Integral files         IntName         .... CCSD_T
 Hartree-Fock type      HFTyp           .... RHF
 Total Charge           Charge          ....    0
 Multiplicity           Mult            ....    1
 Number of Electrons    NEL             ....   10
 Basis Dimension        Dim             ....   37
 Nuclear Repulsion      ENuc            ....      1.1906487187 Eh

Convergence Acceleration:
 DIIS                   CNVDIIS         .... on
   Start iteration      DIISMaxIt       ....    12
   Startup error        DIISStart       ....  0.200000
   # of expansion vecs  DIISMaxEq       ....     5
   Bias factor          DIISBfac        ....   1.050
   Max. coefficient     DIISMaxC        ....  10.000
 Trust-Rad. Augm. Hess. CNVTRAH         .... auto
   Auto Start mean grad. ratio tolernc. ....  1.125000
   Auto Start start iteration           ....    20
   Auto Start num. interpolation iter.  ....    10
   Max. Number of Micro iterations      ....    16
   Max. Number of Macro iterations      .... Maxiter - #DIIS iter
   Number of Davidson start vectors     ....     2
   Converg. threshold I  (grad. norm)   ....   1.000e-05
   Converg. threshold II (energy diff.) ....   1.000e-08
   Grad. Scal. Fac. for Micro threshold ....   0.100
   Minimum threshold for Micro iter.    ....   0.010
   NR start threshold (gradient norm)   ....   0.001
   Initial trust radius                 ....   0.400
   Minimum AH scaling param. (alpha)    ....   1.000
   Maximum AH scaling param. (alpha)    .... 1000.000
   Orbital update algorithm             .... Taylor
   White noise on init. David. guess    .... on
   Maximum white noise                  ....   0.010
   Quad. conv. algorithm                .... NR
 SOSCF                  CNVSOSCF        .... on
   Start iteration      SOSCFMaxIt      ....   150
   Startup grad/error   SOSCFStart      ....  0.003300
 Level Shifting         CNVShift        .... on
   Level shift para.    LevelShift      ....    0.2500
   Turn off err/grad.   ShiftErr        ....    0.0010
 Zerner damping         CNVZerner       .... off
 Static damping         CNVDamp         .... on
   Fraction old density DampFac         ....    0.7000
   Max. Damping (<1)    DampMax         ....    0.9800
   Min. Damping (>=0)   DampMin         ....    0.0000
   Turn off err/grad.   DampErr         ....    0.1000
 Fernandez-Rico         CNVRico         .... off

SCF Procedure:
 Maximum # iterations   MaxIter         ....   125
 SCF integral mode      SCFMode         .... Direct
   Integral package                     .... SHARK and LIBINT hybrid scheme
 Reset frequency        DirectResetFreq ....    20
 Integral Threshold     Thresh          ....  2.500e-11 Eh
 Primitive CutOff       TCut            ....  2.500e-12 Eh

Convergence Tolerance:
 Convergence Check Mode ConvCheckMode   .... Total+1el-Energy
 Convergence forced     ConvForced      .... 1
 Energy Change          TolE            ....  1.000e-08 Eh
 1-El. energy change                    ....  1.000e-05 Eh
 Orbital Gradient       TolG            ....  1.000e-05
 Orbital Rotation angle TolX            ....  1.000e-05
 DIIS Error             TolErr          ....  5.000e-07


Diagonalization of the overlap matrix:
Smallest eigenvalue                        ... 3.084e-02
Time for diagonalization                   ...    0.001 sec
Threshold for overlap eigenvalues          ... 1.000e-08
Number of eigenvalues below threshold      ... 0
Time for construction of square roots      ...    0.271 sec
Total time needed                          ...    0.302 sec

Time for model grid setup =    0.173 sec

------------------------------
INITIAL GUESS: MODEL POTENTIAL
------------------------------
Loading Hartree-Fock densities                     ... done
Calculating cut-offs                               ... done
Initializing the effective Hamiltonian             ... done
Setting up the integral package (SHARK)            ... done
Starting the Coulomb interaction                   ... done (   0.3 sec)
Reading the grid                                   ... done
Mapping shells                                     ... done
Starting the XC term evaluation                    ... done (   0.0 sec)
Transforming the Hamiltonian                       ... done (   0.0 sec)
Diagonalizing the Hamiltonian                      ... done (   0.0 sec)
Back transforming the eigenvectors                 ... done (   0.0 sec)
Now organizing SCF variables                       ... done
                      ------------------
                      INITIAL GUESS DONE (   0.6 sec)
                      ------------------
--------------
SCF ITERATIONS
--------------
ITER       Energy         Delta-E        Max-DP      RMS-DP      [F,P]     Damp
               ***  Starting incremental Fock matrix formation  ***
  0    -99.4681176049   0.000000000000 0.15250022  0.00951204  0.3998980 0.7000
  1    -99.5442598843  -0.076142279362 0.10412917  0.00636792  0.2651529 0.7000
  2    -99.4771620105   0.067097873763 0.06772336  0.00481498  0.2065778 0.7000
                               ***Turning on DIIS***
  3    -99.5466553715  -0.069493360960 0.04740794  0.00315611  0.1290185 0.7000
  4   -100.0566077098  -0.509952338375 0.11061578  0.00731425  0.0993981 0.0000
  5   -101.4728319790  -1.416224269155 0.00071705  0.00005188  0.2321869 0.7000
  6   -101.4653383643   0.007493614714 0.00065168  0.00004736  0.2306610 0.7000
  7   -101.4562686253   0.009069738947 0.00053455  0.00003953  0.2292833 0.7000
  8   -101.4996642279  -0.043395602590 0.00079629  0.00004744  0.2281018 0.7000
  9    -99.5539954642   1.945668763731 0.02941763  0.00231144  0.2293880 0.7000
 10    -99.9366716127  -0.382676148512 0.02197222  0.00186939  0.1364056 0.7000
 11    -99.7828368045   0.153834808203 0.10934545  0.00771622  0.0878646 0.0000
 12    -99.1374658252   0.645370979273 0.01309441  0.00122204  0.1043231 0.7000
 13    -99.0772972790   0.060168546260 0.02107755  0.00174149  0.1131354 0.7000
 14    -98.8509889629   0.226308316058 0.02471791  0.00189021  0.1344745 0.7000
 15    -98.5505918407   0.300397122217 0.02583355  0.00187490  0.1654448 0.7000
 16    -98.6497792019  -0.099187361192 0.01371974  0.00114907  0.2021240 0.7000
 17    -98.5696140544   0.080165147472 0.00744467  0.00067702  0.1988589 0.7000
 18    -98.6100466461  -0.040432591644 0.00665892  0.00046770  0.1860621 0.7000
 19    -98.8413834165  -0.231336770455 0.00803145  0.00067851  0.1674934 0.7000
               *** Restarting incremental Fock matrix formation ***
                                   *** Resetting DIIS ***

 WARNING: the maximum gradient error descreased on average only by a factor   0.9
          during the last 20 iterations

                      *** Initiating the TRAH-SCF procedure ***

 --------------------------------------------------------------------------------------------
   Iter.        energy            ||Error||_2        Shift      TRadius  Mac/Mic        Rej.
 --------------------------------------------------------------------------------------------
    0        -99.627113884188     6.253591e-01                     0.400 (TRAH MAcro)   No
    0     dE    -1.513836e-02     6.853365e-01    -2.9948e-02      0.105 (TRAH MIcro)
    0     dE    -1.744533e-02     7.453279e-02    -3.4439e-02      0.115 (TRAH MIcro)
    0     dE    -1.757364e-02     3.427044e-02    -3.4704e-02      0.113 (TRAH MIcro)
    0     dE    -1.759504e-02     7.580129e-03    -3.4727e-02      0.116 (TRAH MIcro)
    1        -99.643006567052     4.334987e-02                     0.480 (TRAH MAcro)   No
    1     dE    -3.350895e-04     9.049533e-02    -6.6998e-04      0.017 (TRAH MIcro)
    1     dE    -4.692331e-04     1.274096e-02    -9.3785e-04      0.026 (TRAH MIcro)
    1     dE    -4.739978e-04     3.810811e-03    -9.4734e-04      0.026 (TRAH MIcro)
    2        -99.643490488642     3.855486e-03                     0.576 (TRAH MAcro)   No
    2     dE    -3.841005e-07     3.493536e-03    -7.6820e-07      0.001 (TRAH MIcro)
    2     dE    -7.293148e-07     1.044102e-03    -1.4586e-06      0.001 (TRAH MIcro)
    2     dE    -7.757234e-07     5.823727e-04    -1.5514e-06      0.001 (TRAH MIcro)
    2     dE    -7.833958e-07     4.301994e-04    -1.5668e-06      0.001 (TRAH MIcro)
    2     dE    -8.558129e-07     1.211685e-03    -1.7116e-06      0.002 (TRAH MIcro)
    2     dE    -8.830163e-07     1.459545e-04    -1.7660e-06      0.003 (TRAH MIcro)
    3        -99.643491381096     1.485377e-04                           (NR   MAcro)
    3     dE    -3.244228e-10     7.945631e-05                           (NR   MIcro)
    3     dE    -5.759182e-10     3.469101e-05                           (NR   MIcro)
    3     dE    -6.411345e-10     2.897509e-05                           (NR   MIcro)
    3     dE    -1.067505e-09     1.049074e-04                           (NR   MIcro)
    3     dE    -1.360277e-09     2.412972e-05                           (NR   MIcro)
    3     dE    -1.373376e-09     3.996995e-06                           (NR   MIcro)
    3     dE    -1.374059e-09     1.281511e-06                           (NR   MIcro)
    3     dE    -1.374090e-09     1.756859e-07                           (NR   MIcro)
    4        -99.643491382471     2.457062e-07                           (NR   MAcro)

               *****************************************************
               *                     SUCCESS                       *
               *           SCF CONVERGED AFTER  46 CYCLES          *
               *****************************************************


----------------
TOTAL SCF ENERGY
----------------

Total Energy       :          -99.64349138 Eh           -2711.43725 eV

Components:
Nuclear Repulsion  :            1.19064872 Eh              32.39920 eV
Electronic Energy  :         -100.83414010 Eh           -2743.83645 eV
One Electron Energy:         -143.46017190 Eh           -3903.74974 eV
Two Electron Energy:           42.62603180 Eh            1159.91329 eV

Virial components:
Potential Energy   :         -199.21531983 Eh           -5420.92445 eV
Kinetic Energy     :           99.57182845 Eh            2709.48720 eV
Virial Ratio       :            2.00071971


---------------
SCF CONVERGENCE
---------------

  Last Energy change         ...   -1.3749e-09  Tolerance :   1.0000e-08
  Last Orbital Gradient      ...    2.4571e-07  Tolerance :   1.0000e-05
  Last Orbital Rotation      ...    2.6749e-04

             **** THE GBW FILE WAS UPDATED (CCSD_T.gbw) ****
             **** DENSITY CCSD_T.scfp WAS UPDATED ****
             **** ENERGY FILE WAS UPDATED (CCSD_T.en.tmp) ****
             **** THE GBW FILE WAS UPDATED (CCSD_T.gbw) ****
             **** DENSITY CCSD_T.scfp WAS UPDATED ****
----------------
ORBITAL ENERGIES
----------------

  NO   OCC          E(Eh)            E(eV) 
   0   2.0000     -26.218404      -713.4391 
   1   2.0000      -1.419727       -38.6327 
   2   2.0000      -0.545124       -14.8336 
   3   2.0000      -0.545124       -14.8336 
   4   2.0000      -0.375674       -10.2226 
   5   0.0000      -0.234859        -6.3908 
   6   0.0000       0.295457         8.0398 
   7   0.0000       0.746110        20.3027 
   8   0.0000       0.788668        21.4608 
   9   0.0000       0.788668        21.4608 
  10   0.0000       0.806325        21.9412 
  11   0.0000       1.442280        39.2464 
  12   0.0000       1.442280        39.2464 
  13   0.0000       1.443282        39.2737 
  14   0.0000       2.310553        62.8733 
  15   0.0000       2.358577        64.1801 
  16   0.0000       2.360208        64.2245 
  17   0.0000       2.360208        64.2245 
  18   0.0000       2.369118        64.4670 
  19   0.0000       2.369118        64.4670 
  20   0.0000       3.692663       100.4825 
  21   0.0000       3.692663       100.4825 
  22   0.0000       3.700074       100.6841 
  23   0.0000       3.956232       107.6545 
  24   0.0000       7.468147       203.2186 
  25   0.0000       7.472653       203.3412 
  26   0.0000       7.472653       203.3412 
  27   0.0000       7.486207       203.7101 
  28   0.0000       7.486207       203.7101 
  29   0.0000       7.508880       204.3270 
  30   0.0000       7.508880       204.3270 
  31   0.0000       8.927483       242.9292 
  32   0.0000       8.934260       243.1136 
  33   0.0000       8.934260       243.1136 
  34   0.0000       8.955244       243.6846 
  35   0.0000       8.955244       243.6846 
  36   0.0000      58.046167      1579.5165 

                    ********************************
                    * MULLIKEN POPULATION ANALYSIS *
                    ********************************

-----------------------
MULLIKEN ATOMIC CHARGES
-----------------------
   0 H :    0.405736
   1 F :   -0.405736
Sum of atomic charges:   -0.0000000

--------------------------------
MULLIKEN REDUCED ORBITAL CHARGES
--------------------------------
  0 H s       :     0.594259  s :     0.594259
      pz      :     0.000005  p :     0.000005
      px      :     0.000000
      py      :     0.000000
  1 F s       :     4.000184  s :     4.000184
      pz      :     1.405521  p :     5.405501
      px      :     1.999990
      py      :     1.999990
      dz2     :     0.000023  d :     0.000029
      dxz     :     0.000003
      dyz     :     0.000003
      dx2y2   :     0.000000
      dxy     :     0.000000
      f0      :     0.000008  f :     0.000023
      f+1     :     0.000007
      f-1     :     0.000007
      f+2     :     0.000000
      f-2     :     0.000000
      f+3     :     0.000000
      f-3     :     0.000000


                     *******************************
                     * LOEWDIN POPULATION ANALYSIS *
                     *******************************

----------------------
LOEWDIN ATOMIC CHARGES
----------------------
   0 H :    0.406375
   1 F :   -0.406375

-------------------------------
LOEWDIN REDUCED ORBITAL CHARGES
-------------------------------
  0 H s       :     0.593621  s :     0.593621
      pz      :     0.000005  p :     0.000005
      px      :     0.000000
      py      :     0.000000
  1 F s       :     4.000145  s :     4.000145
      pz      :     1.406198  p :     5.406178
      px      :     1.999990
      py      :     1.999990
      dz2     :     0.000023  d :     0.000029
      dxz     :     0.000003
      dyz     :     0.000003
      dx2y2   :     0.000000
      dxy     :     0.000000
      f0      :     0.000008  f :     0.000023
      f+1     :     0.000007
      f-1     :     0.000007
      f+2     :     0.000000
      f-2     :     0.000000
      f+3     :     0.000000
      f-3     :     0.000000


                      *****************************
                      * MAYER POPULATION ANALYSIS *
                      *****************************

  NA   - Mulliken gross atomic population
  ZA   - Total nuclear charge
  QA   - Mulliken gross atomic charge
  VA   - Mayer's total valence
  BVA  - Mayer's bonded valence
  FA   - Mayer's free valence

  ATOM       NA         ZA         QA         VA         BVA        FA
  0 H      0.5943     1.0000     0.4057     0.8354     0.8354    -0.0000
  1 F      9.4057     9.0000    -0.4057     0.8354     0.8354     0.0000

  Mayer bond orders larger than 0.100000
B(  0-H ,  1-F ) :   0.8354 

-------
TIMINGS
-------

Total SCF time: 0 days 0 hours 0 min 22 sec 

Total time                  ....      22.866 sec
Sum of individual times     ....       6.336 sec  ( 27.7%)

Fock matrix formation       ....       4.473 sec  ( 19.6%)
Diagonalization             ....       0.018 sec  (  0.1%)
Density matrix formation    ....       0.001 sec  (  0.0%)
Population analysis         ....       0.362 sec  (  1.6%)
Initial guess               ....       0.460 sec  (  2.0%)
Orbital Transformation      ....       0.007 sec  (  0.0%)
Orbital Orthonormalization  ....       0.000 sec  (  0.0%)
DIIS solution               ....       0.843 sec  (  3.7%)
SOSCF solution              ....       0.000 sec  (  0.0%)

Maximum memory used throughout the entire SCF-calculation: 226.5 MB


--------------------------------------------------------------------------------
                             ORCA-MATRIX DRIVEN CI
--------------------------------------------------------------------------------

--------------------------------
AUTOMATIC CHOICE OF INCORE LEVEL
--------------------------------

Memory available                           ...    256.00 MB
Memory needed for S+T                      ...      0.23 MB
Memory needed for J+K                      ...      0.47 MB
Memory needed for DIIS                     ...      3.28 MB
Memory needed for 3-ext                    ...      1.00 MB
Memory needed for 4-ext                    ...      4.12 MB
Memory needed for triples                  ...      1.25 MB
 -> Final InCoreLevel    ... 5
 -> check shows that triples correction can be computed


Wavefunction type
-----------------
Correlation treatment                      ...      CCSD     
Single excitations                         ... ON
Orbital optimization                       ... OFF
Calculation of Z vector                    ... OFF
Calculation of Brueckner orbitals          ... OFF
Perturbative triple excitations            ... ON
Calculation of F12 correction              ... OFF
Frozen core treatment                      ... chemical core (2 el)
Reference Wavefunction                     ... RHF
  Internal Orbitals:     1 ...    4 (  4 MO's/  8 electrons)
  Virtual  Orbitals:     5 ...   36 ( 32 MO's              )
Number of AO's                             ...     37
Number of electrons                        ...     10
Number of correlated electrons             ...      8

Algorithmic settings
--------------------
Integral transformation                    ... AO direct full transformation
K(C) Formation                             ... FULL-MO TRAFO
Maximum number of iterations               ...        50
Convergence tolerance (max. residuum)      ... 1.000e-05
Level shift for amplitude update           ... 2.000e-01
Maximum number of DIIS vectors             ...         7
DIIS turned on at iteration                ...         0
Damping before turning on DIIS             ...     0.500
Damping after turning on DIIS              ...     0.000
Pair specific amplitude update             ... OFF
Natural orbital iterations                 ... OFF
Perturbative natural orbital generation    ... OFF
Printlevel                                 ... 2

Memory handling:
----------------
Maximum memory for working arrays          ...    256 MB
Data storage in matrix containers          ... UNCOMPRESSED
Data type for integral storage             ... DOUBLE
In-Core Storage of quantities:
   Amplitudes+Sigma Vector      ... YES
   J+K operators                ... YES
   DIIS vectors                 ... YES
   3-external integrals         ... YES
   4-external integrals         ... YES


Initializing the integral package          ... done
Warning: reference  - re-canonicalizations have been set to INT 1 VIRT 1

--------------------------
CLOSED-SHELL FOCK OPERATOR
--------------------------

Restoring SHARK [2] ... ok
Recanonicalizing the internal orbitals
Recanonicalizing the virtual orbitals
Time needed for Fock operator              ...            0.820 sec
Reference energy                           ...    -99.643491382

------------------------------
PARTIAL COULOMB TRANSFORMATION
------------------------------

Transformation type                        ... one-operator
Dimension of the basis                     ...   37
Number of internal MOs                     ...   36 (1-36)
Pair cutoff                                ... 0.000e+00 Eh
Number of AO pairs included in the trafo   ...  703
Total Number of distinct AO pairs          ...  703
Memory devoted for trafo                   ...  256.0 MB 
Max. Number of MO pairs treated together   ... 47730      
Max. Number of MOs treated per batch       ... 1290      
Number Format for Storage                  ... Double (8 Byte)
AO-integral source                         ... DIRECT
Integral package used                      ... LIBINT

Starting integral evaluation:
<ss|**>:         3564 b        0 skpd     1.614 s (  0.453 ms/b)
<sp|**>:         3024 b        0 skpd     3.707 s (  1.226 ms/b)
<sd|**>:         1620 b        0 skpd     2.915 s (  1.799 ms/b)
<sf|**>:          756 b        0 skpd     1.953 s (  2.583 ms/b)
<pp|**>:          972 b        0 skpd     2.652 s (  2.728 ms/b)
<pd|**>:          756 b        0 skpd     4.631 s (  6.125 ms/b)
<pf|**>:          324 b        0 skpd     2.641 s (  8.152 ms/b)
<dd|**>:          324 b        0 skpd     2.260 s (  6.976 ms/b)
<df|**>:          216 b        0 skpd     3.683 s ( 17.049 ms/b)
<ff|**>:          108 b        0 skpd     1.724 s ( 15.962 ms/b)
Closing buffer AOJ ( 0.00 GB; CompressionRatio= 1.00)
Collecting buffer AOJ 
    ... done with AO integral generation
Number of MO pairs included in the trafo   ...  666
    ... Now sorting integrals
IBATCH = 1 of  1
Closing buffer JAO ( 0.00 GB; CompressionRatio= 1.00)
Collecting buffer JAO 
TOTAL TIME for half transformation         ...    58.529 sec
AO-integral generation                     ...     0.095 sec
Half transformation                        ...    27.685 sec
J-integral sorting                         ...    30.284 sec

-------------------------- SECOND HALF TRANSFORMATION --------------------------
Formation of (pq|rs)                       ... ok (    34.542 sec)
Integral sorting                           ... ok (     0.124 sec)

------------------
CLOSED SHELL GUESS
------------------

Initial guess performed in     0.000 sec
E(0)                                       ...    -99.643491382
E(MP2)                                     ...     -0.490762400
Initial E(tot)                             ...   -100.134253783
<T|T>                                      ...      0.773899761
Number of pairs included                   ... 10
Total number of pairs                      ... 10

------------------------------------------------
                  RHF COUPLED CLUSTER ITERATIONS
------------------------------------------------

Number of amplitudes to be optimized       ... 10368

Iter       E(tot)           E(Corr)          Delta-E          Residual     Time
  0   -100.134253783     -0.490762400      0.000000000      0.273442182    0.03
                           *** Turning on DIIS ***
  1    -99.865554815     -0.222063432      0.268698968      0.335402277    0.04
  2   -100.012564246     -0.369072864     -0.147009431      0.138031973    0.04
  3   -100.061002265     -0.417510883     -0.048438019      0.044735492    0.02
  4   -100.086859733     -0.443368351     -0.025857468      0.007262362    0.04
  5   -100.091579230     -0.448087848     -0.004719497      0.003005075    0.02
  6   -100.089327349     -0.445835967      0.002251881      0.002191773    0.04
  7   -100.089997362     -0.446505979     -0.000670013      0.000661645    0.03
  8   -100.090419413     -0.446928031     -0.000422051      0.000321080    0.04
  9   -100.090238793     -0.446747411      0.000180620      0.000070704    0.02
 10   -100.090256110     -0.446764727     -0.000017316      0.000025397    0.04
 11   -100.090268359     -0.446776976     -0.000012249      0.000008036    0.04
               --- The Coupled-Cluster iterations have converged ---

----------------------
COUPLED CLUSTER ENERGY
----------------------

E(0)                                       ...    -99.643491382
E(CORR)                                    ...     -0.446776976
E(TOT)                                     ...   -100.090268359
Singles Norm <S|S>**1/2                    ...      0.389819328  
T1 diagnostic                              ...      0.137821945  

------------------
LARGEST AMPLITUDES
------------------
   4->  5   4->  5       0.979608
   4->  5  -1-> -1       0.371575
   4->  6  -1-> -1       0.085944
   4->  5   4-> 10       0.081779
   4-> 10   4->  5       0.081779
   4-> 10  -1-> -1       0.069695
   4->  5   4->  6       0.063188
   4->  6   4->  5       0.063188
   3->  9   3->  9       0.034905
   2->  8   2->  8       0.034905
   4-> 15   1->  5       0.033924
   3->  9   2->  8       0.025094
   3-> 16   1->  5       0.021409
   2-> 17   1->  5       0.021409
   3->  9  -1-> -1       0.020674
   2->  8  -1-> -1       0.020674


        !!!!!!!!!!!!!!!!!!!!!!!!!!!!!!!!!!!!!!!!!!!!!!!!!!!!!!!!!!!!!!!!!!!!!!!!!! 
        !  Warning: Densities are linearized densities !                         !
        !!!!!!!!!!!!!!!!!!!!!!!!!!!!!!!!!!!!!!!!!!!!!!!!!!!!!!!!!!!!!!!!!!!!!!!!!! 

Trace of internal density part =     -2.348801913
Trace of external density part =      2.348801913
----------------------
RHF TRIPLES CORRECTION (Algorithm 1)
----------------------

Multiplier for the singles contribution    ...      1.000000000

10% done
20% done
30% done
40% done
50% done
60% done
70% done
80% done
90% done

Triples Correction (T)                     ...     -0.096771724
Scaling of triples based on CCSD energies (Peterson et al. Molecular Physics 113, 1551 (2015))
E(T*) = f*E(T) where f = E(F12-CCSD)/E(CCSD) 
f = CCSD (with F12)/ CCSD (without F12)    ...      1.000000000
Scaled triples correction (T)              ...     -0.096771724

Final correlation energy                   ...     -0.543548700
E(CCSD)                                    ...   -100.090268359
E(CCSD(T))                                 ...   -100.187040082

NORM  =      2.326360066 sqrt=     1.525240986
W(HF) =      0.429856072
------------------------------------------------------------------------------
                           ORCA POPULATION ANALYSIS
------------------------------------------------------------------------------
Input electron density              ... CCSD_T.mdcip
BaseName (.gbw .S,...)              ... CCSD_T

                    ********************************
                    * MULLIKEN POPULATION ANALYSIS *
                    ********************************

-----------------------
MULLIKEN ATOMIC CHARGES
-----------------------
   0 H :   -0.525207
   1 F :    0.525207
Sum of atomic charges:   -0.0000000

--------------------------------
MULLIKEN REDUCED ORBITAL CHARGES
--------------------------------
  0 H s       :     1.525201  s :     1.525201
      pz      :    -0.000000  p :     0.000005
      px      :     0.000003
      py      :     0.000003
  1 F s       :     3.989182  s :     3.989182
      pz      :     0.478612  p :     4.458524
      px      :     1.989956
      py      :     1.989956
      dz2     :     0.006478  d :     0.024638
      dxz     :     0.004552
      dyz     :     0.004552
      dx2y2   :     0.004528
      dxy     :     0.004528
      f0      :     0.000356  f :     0.002450
      f+1     :     0.000374
      f-1     :     0.000374
      f+2     :     0.000333
      f-2     :     0.000333
      f+3     :     0.000341
      f-3     :     0.000341


                     *******************************
                     * LOEWDIN POPULATION ANALYSIS *
                     *******************************

----------------------
LOEWDIN ATOMIC CHARGES
----------------------
   0 H :   -0.525462
   1 F :    0.525462

-------------------------------
LOEWDIN REDUCED ORBITAL CHARGES
-------------------------------
  0 H s       :     1.525456  s :     1.525456
      pz      :    -0.000000  p :     0.000005
      px      :     0.000003
      py      :     0.000003
  1 F s       :     3.989239  s :     3.989239
      pz      :     0.478299  p :     4.458211
      px      :     1.989956
      py      :     1.989956
      dz2     :     0.006479  d :     0.024638
      dxz     :     0.004552
      dyz     :     0.004552
      dx2y2   :     0.004528
      dxy     :     0.004528
      f0      :     0.000356  f :     0.002450
      f+1     :     0.000374
      f-1     :     0.000374
      f+2     :     0.000333
      f-2     :     0.000333
      f+3     :     0.000341
      f-3     :     0.000341


                      *****************************
                      * MAYER POPULATION ANALYSIS *
                      *****************************

  NA   - Mulliken gross atomic population
  ZA   - Total nuclear charge
  QA   - Mulliken gross atomic charge
  VA   - Mayer's total valence
  BVA  - Mayer's bonded valence
  FA   - Mayer's free valence

  ATOM       NA         ZA         QA         VA         BVA        FA
  0 H      1.5252     1.0000    -0.5252     0.6709     1.2805    -0.6096
  1 F      8.4748     9.0000     0.5252     0.8927     1.2805    -0.3878

  Mayer bond orders larger than 0.100000
B(  0-H ,  1-F ) :   1.2805 



--------------------------------------------------------------------------------
                                    TIMINGS
--------------------------------------------------------------------------------


Total execution time                   ...       96.351 sec

Fock Matrix Formation                  ...        0.820 sec (  0.9%)
Initial Guess                          ...        0.000 sec (  0.0%)
DIIS Solver                            ...        0.004 sec (  0.0%)
State Vector Update                    ...        0.000 sec (  0.0%)
Sigma-vector construction              ...        0.393 sec (  0.4%)
  <D|H|D>(0-ext)                       ...        0.003 sec (  0.7% of sigma)
  <D|H|D>(2-ext Fock)                  ...        0.002 sec (  0.4% of sigma)
  <D|H|D>(2-ext)                       ...        0.021 sec (  5.2% of sigma)
  <D|H|D>(4-ext)                       ...        0.033 sec (  8.4% of sigma)
  <D|H|D>(4-ext-corr)                  ...        0.026 sec (  6.7% of sigma)
  <S|H|D>(1-ext)                       ...        0.001 sec (  0.3% of sigma)
  <D|H|S>(1-ext)                       ...        0.004 sec (  0.9% of sigma)
  <S|H|D>(3-ext)                       ...        0.009 sec (  2.4% of sigma)
  Fock-dressing                        ...        0.254 sec ( 64.6% of sigma)
  (ik|jl)-dressing                     ...        0.003 sec (  0.7% of sigma)
  (ij|ab),(ia|jb)-dressing             ...        0.023 sec (  5.9% of sigma)
Total Time for computing (T)           ...        0.229 sec (  0.2% of ALL)
  I/O of integral and amplitudes       ...        0.003 sec (  1.4% of (T))
  N**6 sorting step                    ...        0.012 sec (  5.1% of (T))
  External N**7 contributions          ...        0.024 sec ( 10.3% of (T))
  Internal N**7 contributions          ...        0.005 sec (  2.3% of (T))
  N**6 triples energy contributions    ...        0.009 sec (  3.8% of (T))
One-particle density matrix            ...        0.042 sec (  0.0%)


Maximum memory used throughout the entire MDCI-calculation: 65.3 MB

-------------------------   --------------------
FINAL SINGLE POINT ENERGY      -100.187040082336
-------------------------   --------------------

Storing actual gbw-file in CCSD_T.001.gbw ... done

                            ***************************************
                            *     ORCA property calculations      *
                            ***************************************

                                    ---------------------
                                    Active property flags
                                    ---------------------
   (+) Dipole Moment


------------------------------------------------------------------------------
                       ORCA ELECTRIC PROPERTIES CALCULATION
------------------------------------------------------------------------------

Dipole Moment Calculation                       ... on
Quadrupole Moment Calculation                   ... off
Polarizability Calculation                      ... off
GBWName                                         ... CCSD_T.gbw
Electron density                                ... CCSD_T.scfp
The origin for moment calculation is the CENTER OF MASS  = ( 0.000000,  0.000000  7.178050)

-------------
DIPOLE MOMENT
-------------
                                X             Y             Z
Electronic contribution:      0.00000       0.00000       0.68331
Nuclear contribution   :      0.00000       0.00000      -3.75036
                        -----------------------------------------
Total Dipole Moment    :      0.00000       0.00000      -3.06705
                        -----------------------------------------
Magnitude (a.u.)       :      3.06705
Magnitude (Debye)      :      7.79581



--------------------
Rotational spectrum 
--------------------
 
Rotational constants in cm-1:     0.000000     1.100699     1.100699 
Rotational constants in MHz :     0.000000 32998.140725 32998.140725 

 Dipole components along the rotational axes: 
x,y,z [a.u.] :    -3.067047     0.000000     0.000000 
x,y,z [Debye]:    -7.795814     0.000000     0.000000 

 

                           *** MDCI DENSITY ***

------------------------------------------------------------------------------
                       ORCA ELECTRIC PROPERTIES CALCULATION
------------------------------------------------------------------------------

Dipole Moment Calculation                       ... on
Quadrupole Moment Calculation                   ... off
Polarizability Calculation                      ... off
GBWName                                         ... CCSD_T.gbw
Electron density                                ... CCSD_T.mdcip
The origin for moment calculation is the CENTER OF MASS  = ( 0.000000,  0.000000  7.178050)

-------------
DIPOLE MOMENT
-------------
                                X             Y             Z
Electronic contribution:     -0.00000      -0.00000       7.73029
Nuclear contribution   :      0.00000       0.00000      -3.75036
                        -----------------------------------------
Total Dipole Moment    :     -0.00000      -0.00000       3.97993
                        -----------------------------------------
Magnitude (a.u.)       :      3.97993
Magnitude (Debye)      :     10.11618



--------------------
Rotational spectrum 
--------------------
 
Rotational constants in cm-1:     0.000000     1.100699     1.100699 
Rotational constants in MHz :     0.000000 32998.140725 32998.140725 

 Dipole components along the rotational axes: 
x,y,z [a.u.] :     3.979929    -0.000000    -0.000000 
x,y,z [Debye]:    10.116175    -0.000000    -0.000000 

 

         *************************************************************
                                TRAJECTORY STEP   2
                  R  :   3.89705882
         *************************************************************
---------------------------------
CARTESIAN COORDINATES (ANGSTROEM)
---------------------------------
  H      0.000000    0.000000    0.000000
  F      0.000000    0.000000    3.897059

----------------------------
CARTESIAN COORDINATES (A.U.)
----------------------------
  NO LB      ZA    FRAG     MASS         X           Y           Z
   0 H     1.0000    0     1.008    0.000000    0.000000    0.000000
   1 F     9.0000    0    18.998    0.000000    0.000000    7.364374

--------------------------------
INTERNAL COORDINATES (ANGSTROEM)
--------------------------------
 H      0   0   0     0.000000000000     0.00000000     0.00000000
 F      1   0   0     3.897058823529     0.00000000     0.00000000

---------------------------
INTERNAL COORDINATES (A.U.)
---------------------------
 H      0   0   0     0.000000000000     0.00000000     0.00000000
 F      1   0   0     7.364373904252     0.00000000     0.00000000

------------------------------------------------------------------------------
                   ___                                                        
                  /   \      - P O W E R E D   B Y -                         
                 /     \                                                     
                 |  |  |   _    _      __       _____    __    __             
                 |  |  |  | |  | |    /  \     |  _  \  |  |  /  |          
                  \  \/   | |  | |   /    \    | | | |  |  | /  /          
                 / \  \   | |__| |  /  /\  \   | |_| |  |  |/  /          
                |  |  |   |  __  | /  /__\  \  |    /   |      \           
                |  |  |   | |  | | |   __   |  |    \   |  |\   \          
                \     /   | |  | | |  |  |  |  | |\  \  |  | \   \       
                 \___/    |_|  |_| |__|  |__|  |_| \__\ |__|  \__/        
                                                                              
                      - O R C A' S   B I G   F R I E N D -                    
                                      &                                       
                       - I N T E G R A L  F E E D E R -                       
                                                                              
 v1 FN, 2020, v2 2021                                                         
------------------------------------------------------------------------------


Reading SHARK input file CCSD_T.SHARKINP.tmp ... ok
----------------------
SHARK INTEGRAL PACKAGE
----------------------

Number of atoms                             ...      2
Number of basis functions                   ...     37
Number of shells                            ...     15
Maximum angular momentum                    ...      3
Integral batch strategy                     ... SHARK/LIBINT Hybrid
RI-J (if used) integral strategy            ... SPLIT-RIJ (Revised 2003 algorithm where possible)
Printlevel                                  ...      1
Contraction scheme used                     ... SEGMENTED contraction
Coulomb Range Separation                    ... NOT USED
Exchange Range Separation                   ... NOT USED
Finite Nucleus Model                        ... NOT USED
Auxiliary Coulomb fitting basis             ... NOT available
Auxiliary J/K fitting basis                 ... NOT available
Auxiliary Correlation fitting basis         ... NOT available
Auxiliary 'external' fitting basis          ... NOT available
Integral threshold                          ...     2.500000e-11
Primitive cut-off                           ...     2.500000e-12
Primitive pair pre-selection threshold      ...     2.500000e-12

Calculating pre-screening integrals         ... done (  0.1 sec) Dimension = 15
Organizing shell pair data                  ... done (  0.3 sec)
Shell pair information
Total number of shell pairs                 ...       120
Shell pairs after pre-screening             ...       110
Total number of primitive shell pairs       ...       376
Primitive shell pairs kept                  ...       312
          la=0 lb=0:     33 shell pairs
          la=1 lb=0:     29 shell pairs
          la=1 lb=1:      9 shell pairs
          la=2 lb=0:     15 shell pairs
          la=2 lb=1:      7 shell pairs
          la=2 lb=2:      3 shell pairs
          la=3 lb=0:      7 shell pairs
          la=3 lb=1:      4 shell pairs
          la=3 lb=2:      2 shell pairs
          la=3 lb=3:      1 shell pairs

Calculating one electron integrals          ... done (  0.0 sec)
Calculating Nuclear repulsion               ... done (  0.1 sec) ENN=      1.222099816904 Eh

SHARK setup successfully completed in   1.2 seconds

Maximum memory used throughout the entire GTOINT-calculation: 12.5 MB

Diagonalization of the overlap matrix:
Smallest eigenvalue                        ... 3.083e-02
Time for diagonalization                   ...    0.000 sec
Threshold for overlap eigenvalues          ... 1.000e-08
Number of eigenvalues below threshold      ... 0
Time for construction of square roots      ...    0.091 sec
Total time needed                          ...    0.111 sec

--------------
SCF ITERATIONS
--------------
ITER       Energy         Delta-E        Max-DP      RMS-DP      [F,P]     Damp
               ***  Starting incremental Fock matrix formation  ***
                      *** Initiating the SOSCF procedure ***
                      *** Re-Reading the Fockian *** 
                      *** Removing any level shift *** 
ITER      Energy       Delta-E        Grad      Rot      Max-DP    RMS-DP
  0    -99.64654390 -99.6465438970  0.000602  0.000602  0.000910  0.000063
               *** Restarting incremental Fock matrix formation ***
  1    -99.64654539  -0.0000014957  0.000489  0.002311  0.001387  0.000084
  2    -99.64654070   0.0000046914  0.001140  0.002043  0.000940  0.000064
  3    -99.64654650  -0.0000057961  0.000065  0.000030  0.000068  0.000005
  4    -99.64654651  -0.0000000113  0.000011  0.000015  0.000023  0.000002
  5    -99.64654651  -0.0000000011  0.000003  0.000004  0.000005  0.000000
                 **** Energy Check signals convergence ****
              ***Rediagonalizing the Fockian in SOSCF/NRSCF***

               *****************************************************
               *                     SUCCESS                       *
               *           SCF CONVERGED AFTER   6 CYCLES          *
               *****************************************************

Total Energy       :          -99.64654651 Eh           -2711.52038 eV
  Last Energy change         ...   -5.8009e-11  Tolerance :   1.0000e-08
  Last MAX-Density change    ...    1.5245e-06  Tolerance :   1.0000e-07
             **** THE GBW FILE WAS UPDATED (CCSD_T.gbw) ****
             **** DENSITY CCSD_T.scfp WAS UPDATED ****
             **** ENERGY FILE WAS UPDATED (CCSD_T.en.tmp) ****
             **** THE GBW FILE WAS UPDATED (CCSD_T.gbw) ****
             **** DENSITY CCSD_T.scfp WAS UPDATED ****
Total SCF time: 0 days 0 hours 0 min 3 sec 

Maximum memory used throughout the entire SCF-calculation: 226.5 MB


--------------------------------------------------------------------------------
                             ORCA-MATRIX DRIVEN CI
--------------------------------------------------------------------------------

--------------------------------
AUTOMATIC CHOICE OF INCORE LEVEL
--------------------------------

Memory available                           ...    256.00 MB
Memory needed for S+T                      ...      0.23 MB
Memory needed for J+K                      ...      0.47 MB
Memory needed for DIIS                     ...      3.28 MB
Memory needed for 3-ext                    ...      1.00 MB
Memory needed for 4-ext                    ...      4.12 MB
Memory needed for triples                  ...      1.25 MB
 -> Final InCoreLevel    ... 5
 -> check shows that triples correction can be computed


Wavefunction type
-----------------
Correlation treatment                      ...      CCSD     
Single excitations                         ... ON
Orbital optimization                       ... OFF
Calculation of Z vector                    ... OFF
Calculation of Brueckner orbitals          ... OFF
Perturbative triple excitations            ... ON
Calculation of F12 correction              ... OFF
Frozen core treatment                      ... chemical core (2 el)
Reference Wavefunction                     ... RHF
  Internal Orbitals:     1 ...    4 (  4 MO's/  8 electrons)
  Virtual  Orbitals:     5 ...   36 ( 32 MO's              )
Number of AO's                             ...     37
Number of electrons                        ...     10
Number of correlated electrons             ...      8

Algorithmic settings
--------------------
Integral transformation                    ... AO direct full transformation
K(C) Formation                             ... FULL-MO TRAFO
Maximum number of iterations               ...        50
Convergence tolerance (max. residuum)      ... 1.000e-05
Level shift for amplitude update           ... 2.000e-01
Maximum number of DIIS vectors             ...         7
DIIS turned on at iteration                ...         0
Damping before turning on DIIS             ...     0.500
Damping after turning on DIIS              ...     0.000
Pair specific amplitude update             ... OFF
Natural orbital iterations                 ... OFF
Perturbative natural orbital generation    ... OFF
Printlevel                                 ... 2

Memory handling:
----------------
Maximum memory for working arrays          ...    256 MB
Data storage in matrix containers          ... UNCOMPRESSED
Data type for integral storage             ... DOUBLE
In-Core Storage of quantities:
   Amplitudes+Sigma Vector      ... YES
   J+K operators                ... YES
   DIIS vectors                 ... YES
   3-external integrals         ... YES
   4-external integrals         ... YES


Initializing the integral package          ... done
Warning: reference  - re-canonicalizations have been set to INT 1 VIRT 1

--------------------------
CLOSED-SHELL FOCK OPERATOR
--------------------------

Restoring SHARK [2] ... ok
Recanonicalizing the internal orbitals
Recanonicalizing the virtual orbitals
Time needed for Fock operator              ...            0.349 sec
Reference energy                           ...    -99.646546510

------------------------------
PARTIAL COULOMB TRANSFORMATION
------------------------------

Transformation type                        ... one-operator
Dimension of the basis                     ...   37
Number of internal MOs                     ...   36 (1-36)
Pair cutoff                                ... 0.000e+00 Eh
Number of AO pairs included in the trafo   ...  703
Total Number of distinct AO pairs          ...  703
Memory devoted for trafo                   ...  256.0 MB 
Max. Number of MO pairs treated together   ... 47730      
Max. Number of MOs treated per batch       ... 1290      
Number Format for Storage                  ... Double (8 Byte)
AO-integral source                         ... DIRECT
Integral package used                      ... LIBINT

Starting integral evaluation:
<ss|**>:         3597 b        0 skpd     1.300 s (  0.361 ms/b)
<sp|**>:         3052 b        0 skpd     3.634 s (  1.191 ms/b)
<sd|**>:         1635 b        0 skpd     3.315 s (  2.028 ms/b)
<sf|**>:          763 b        0 skpd     2.274 s (  2.981 ms/b)
<pp|**>:          981 b        0 skpd     2.799 s (  2.853 ms/b)
<pd|**>:          763 b        0 skpd     5.963 s (  7.815 ms/b)
<pf|**>:          436 b        0 skpd     3.525 s (  8.085 ms/b)
<dd|**>:          327 b        0 skpd     2.241 s (  6.852 ms/b)
<df|**>:          218 b        0 skpd     3.307 s ( 15.169 ms/b)
<ff|**>:          109 b        0 skpd     1.520 s ( 13.948 ms/b)
Closing buffer AOJ ( 0.00 GB; CompressionRatio= 1.00)
Collecting buffer AOJ 
    ... done with AO integral generation
Number of MO pairs included in the trafo   ...  666
    ... Now sorting integrals
IBATCH = 1 of  1
Closing buffer JAO ( 0.00 GB; CompressionRatio= 1.00)
Collecting buffer JAO 
TOTAL TIME for half transformation         ...    59.770 sec
AO-integral generation                     ...     0.063 sec
Half transformation                        ...    29.816 sec
J-integral sorting                         ...    29.564 sec

-------------------------- SECOND HALF TRANSFORMATION --------------------------
Formation of (pq|rs)                       ... ok (    30.322 sec)
Integral sorting                           ... ok (     0.091 sec)

------------------
CLOSED SHELL GUESS
------------------

Initial guess performed in     0.000 sec
E(0)                                       ...    -99.646546510
E(MP2)                                     ...     -0.480474944
Initial E(tot)                             ...   -100.127021454
<T|T>                                      ...      0.716824328
Number of pairs included                   ... 10
Total number of pairs                      ... 10

------------------------------------------------
                  RHF COUPLED CLUSTER ITERATIONS
------------------------------------------------

Number of amplitudes to be optimized       ... 10368

Iter       E(tot)           E(Corr)          Delta-E          Residual     Time
  0   -100.127021454     -0.480474944      0.000000000      0.250065912    0.02
                           *** Turning on DIIS ***
  1    -99.883932123     -0.237385614      0.243089331      0.323918709    0.03
  2   -100.018969218     -0.372422708     -0.135037094      0.124144513    0.02
  3   -100.062496797     -0.415950287     -0.043527579      0.042072203    0.02
  4   -100.086978763     -0.440432253     -0.024481966      0.006191201    0.03
  5   -100.091468902     -0.444922392     -0.004490139      0.002579560    0.03
  6   -100.089390557     -0.442844047      0.002078345      0.002332563    0.05
  7   -100.090123387     -0.443576877     -0.000732830      0.000656324    0.02
  8   -100.090534747     -0.443988237     -0.000411360      0.000313066    0.03
  9   -100.090354678     -0.443808168      0.000180069      0.000081819    0.05
 10   -100.090379206     -0.443832696     -0.000024528      0.000018619    0.02
 11   -100.090389414     -0.443842904     -0.000010208      0.000009155    0.04
               --- The Coupled-Cluster iterations have converged ---

----------------------
COUPLED CLUSTER ENERGY
----------------------

E(0)                                       ...    -99.646546510
E(CORR)                                    ...     -0.443842904
E(TOT)                                     ...   -100.090389414
Singles Norm <S|S>**1/2                    ...      0.389626225  
T1 diagnostic                              ...      0.137753673  

------------------
LARGEST AMPLITUDES
------------------
   4->  5   4->  5       0.974149
   4->  5  -1-> -1       0.371294
   4->  6  -1-> -1       0.086842
   4->  5   4-> 10       0.082180
   4-> 10   4->  5       0.082180
   4-> 10  -1-> -1       0.069221
   4->  5   4->  6       0.061164
   4->  6   4->  5       0.061164
   3->  9   3->  9       0.034806
   2->  8   2->  8       0.034806
   4-> 15   1->  5       0.033570
   3->  9   2->  8       0.024988
   3->  9  -1-> -1       0.020465
   2->  8  -1-> -1       0.020465
   2-> 20   2-> 20       0.019903
   3-> 21   3-> 21       0.019903


        !!!!!!!!!!!!!!!!!!!!!!!!!!!!!!!!!!!!!!!!!!!!!!!!!!!!!!!!!!!!!!!!!!!!!!!!!! 
        !  Warning: Densities are linearized densities !                         !
        !!!!!!!!!!!!!!!!!!!!!!!!!!!!!!!!!!!!!!!!!!!!!!!!!!!!!!!!!!!!!!!!!!!!!!!!!! 

Trace of internal density part =     -2.326436823
Trace of external density part =      2.326436823
----------------------
RHF TRIPLES CORRECTION (Algorithm 1)
----------------------

Multiplier for the singles contribution    ...      1.000000000

10% done
20% done
30% done
40% done
50% done
60% done
70% done
80% done
90% done

Triples Correction (T)                     ...     -0.095581362
Scaling of triples based on CCSD energies (Peterson et al. Molecular Physics 113, 1551 (2015))
E(T*) = f*E(T) where f = E(F12-CCSD)/E(CCSD) 
f = CCSD (with F12)/ CCSD (without F12)    ...      1.000000000
Scaled triples correction (T)              ...     -0.095581362

Final correlation energy                   ...     -0.539424266
E(CCSD)                                    ...   -100.090389414
E(CCSD(T))                                 ...   -100.185970776

NORM  =      2.315027006 sqrt=     1.521521280
W(HF) =      0.431960404
------------------------------------------------------------------------------
                           ORCA POPULATION ANALYSIS
------------------------------------------------------------------------------
Input electron density              ... CCSD_T.mdcip
BaseName (.gbw .S,...)              ... CCSD_T


--------------------------------------------------------------------------------
                                    TIMINGS
--------------------------------------------------------------------------------


Total execution time                   ...       92.737 sec

Fock Matrix Formation                  ...        0.349 sec (  0.4%)
Initial Guess                          ...        0.000 sec (  0.0%)
DIIS Solver                            ...        0.005 sec (  0.0%)
State Vector Update                    ...        0.000 sec (  0.0%)
Sigma-vector construction              ...        0.358 sec (  0.4%)
  <D|H|D>(0-ext)                       ...        0.002 sec (  0.7% of sigma)
  <D|H|D>(2-ext Fock)                  ...        0.001 sec (  0.4% of sigma)
  <D|H|D>(2-ext)                       ...        0.018 sec (  5.1% of sigma)
  <D|H|D>(4-ext)                       ...        0.031 sec (  8.6% of sigma)
  <D|H|D>(4-ext-corr)                  ...        0.024 sec (  6.7% of sigma)
  <S|H|D>(1-ext)                       ...        0.001 sec (  0.3% of sigma)
  <D|H|S>(1-ext)                       ...        0.003 sec (  0.9% of sigma)
  <S|H|D>(3-ext)                       ...        0.009 sec (  2.5% of sigma)
  Fock-dressing                        ...        0.235 sec ( 65.6% of sigma)
  (ik|jl)-dressing                     ...        0.002 sec (  0.7% of sigma)
  (ij|ab),(ia|jb)-dressing             ...        0.021 sec (  5.9% of sigma)
Total Time for computing (T)           ...        0.248 sec (  0.3% of ALL)
  I/O of integral and amplitudes       ...        0.003 sec (  1.4% of (T))
  N**6 sorting step                    ...        0.012 sec (  5.0% of (T))
  External N**7 contributions          ...        0.026 sec ( 10.7% of (T))
  Internal N**7 contributions          ...        0.005 sec (  2.2% of (T))
  N**6 triples energy contributions    ...        0.009 sec (  3.6% of (T))
One-particle density matrix            ...        0.073 sec (  0.1%)


Maximum memory used throughout the entire MDCI-calculation: 65.3 MB

-------------------------   --------------------
FINAL SINGLE POINT ENERGY      -100.185970775620
-------------------------   --------------------

Storing actual gbw-file in CCSD_T.002.gbw ... done

                            ***************************************
                            *     ORCA property calculations      *
                            ***************************************

                                    ---------------------
                                    Active property flags
                                    ---------------------
   (+) Dipole Moment


------------------------------------------------------------------------------
                       ORCA ELECTRIC PROPERTIES CALCULATION
------------------------------------------------------------------------------

Dipole Moment Calculation                       ... on
Quadrupole Moment Calculation                   ... off
Polarizability Calculation                      ... off
GBWName                                         ... CCSD_T.gbw
Electron density                                ... CCSD_T.scfp
The origin for moment calculation is the CENTER OF MASS  = ( 0.000000,  0.000000  6.993321)

-------------
DIPOLE MOMENT
-------------
                                X             Y             Z
Electronic contribution:      0.00000       0.00000       0.65223
Nuclear contribution   :      0.00000       0.00000      -3.65384
                        -----------------------------------------
Total Dipole Moment    :      0.00000       0.00000      -3.00161
                        -----------------------------------------
Magnitude (a.u.)       :      3.00161
Magnitude (Debye)      :      7.62949



--------------------
Rotational spectrum 
--------------------
 
Rotational constants in cm-1:     0.000000     1.159618     1.159618 
Rotational constants in MHz :     0.000000 34764.463416 34764.463416 

 Dipole components along the rotational axes: 
x,y,z [a.u.] :    -3.001613     0.000000     0.000000 
x,y,z [Debye]:    -7.629494     0.000000     0.000000 

 

                           *** MDCI DENSITY ***

------------------------------------------------------------------------------
                       ORCA ELECTRIC PROPERTIES CALCULATION
------------------------------------------------------------------------------

Dipole Moment Calculation                       ... on
Quadrupole Moment Calculation                   ... off
Polarizability Calculation                      ... off
GBWName                                         ... CCSD_T.gbw
Electron density                                ... CCSD_T.mdcip
The origin for moment calculation is the CENTER OF MASS  = ( 0.000000,  0.000000  6.993321)

-------------
DIPOLE MOMENT
-------------
                                X             Y             Z
Electronic contribution:     -0.00000      -0.00000       7.51098
Nuclear contribution   :      0.00000       0.00000      -3.65384
                        -----------------------------------------
Total Dipole Moment    :     -0.00000      -0.00000       3.85714
                        -----------------------------------------
Magnitude (a.u.)       :      3.85714
Magnitude (Debye)      :      9.80406



--------------------
Rotational spectrum 
--------------------
 
Rotational constants in cm-1:     0.000000     1.159618     1.159618 
Rotational constants in MHz :     0.000000 34764.463416 34764.463416 

 Dipole components along the rotational axes: 
x,y,z [a.u.] :     3.857135    -0.000000    -0.000000 
x,y,z [Debye]:     9.804059    -0.000000    -0.000000 

 

         *************************************************************
                                TRAJECTORY STEP   3
                  R  :   3.79411765
         *************************************************************
---------------------------------
CARTESIAN COORDINATES (ANGSTROEM)
---------------------------------
  H      0.000000    0.000000    0.000000
  F      0.000000    0.000000    3.794118

----------------------------
CARTESIAN COORDINATES (A.U.)
----------------------------
  NO LB      ZA    FRAG     MASS         X           Y           Z
   0 H     1.0000    0     1.008    0.000000    0.000000    0.000000
   1 F     9.0000    0    18.998    0.000000    0.000000    7.169843

--------------------------------
INTERNAL COORDINATES (ANGSTROEM)
--------------------------------
 H      0   0   0     0.000000000000     0.00000000     0.00000000
 F      1   0   0     3.794117647059     0.00000000     0.00000000

---------------------------
INTERNAL COORDINATES (A.U.)
---------------------------
 H      0   0   0     0.000000000000     0.00000000     0.00000000
 F      1   0   0     7.169843272819     0.00000000     0.00000000

------------------------------------------------------------------------------
                   ___                                                        
                  /   \      - P O W E R E D   B Y -                         
                 /     \                                                     
                 |  |  |   _    _      __       _____    __    __             
                 |  |  |  | |  | |    /  \     |  _  \  |  |  /  |          
                  \  \/   | |  | |   /    \    | | | |  |  | /  /          
                 / \  \   | |__| |  /  /\  \   | |_| |  |  |/  /          
                |  |  |   |  __  | /  /__\  \  |    /   |      \           
                |  |  |   | |  | | |   __   |  |    \   |  |\   \          
                \     /   | |  | | |  |  |  |  | |\  \  |  | \   \       
                 \___/    |_|  |_| |__|  |__|  |_| \__\ |__|  \__/        
                                                                              
                      - O R C A' S   B I G   F R I E N D -                    
                                      &                                       
                       - I N T E G R A L  F E E D E R -                       
                                                                              
 v1 FN, 2020, v2 2021                                                         
------------------------------------------------------------------------------


Reading SHARK input file CCSD_T.SHARKINP.tmp ... ok
----------------------
SHARK INTEGRAL PACKAGE
----------------------

Number of atoms                             ...      2
Number of basis functions                   ...     37
Number of shells                            ...     15
Maximum angular momentum                    ...      3
Integral batch strategy                     ... SHARK/LIBINT Hybrid
RI-J (if used) integral strategy            ... SPLIT-RIJ (Revised 2003 algorithm where possible)
Printlevel                                  ...      1
Contraction scheme used                     ... SEGMENTED contraction
Coulomb Range Separation                    ... NOT USED
Exchange Range Separation                   ... NOT USED
Finite Nucleus Model                        ... NOT USED
Auxiliary Coulomb fitting basis             ... NOT available
Auxiliary J/K fitting basis                 ... NOT available
Auxiliary Correlation fitting basis         ... NOT available
Auxiliary 'external' fitting basis          ... NOT available
Integral threshold                          ...     2.500000e-11
Primitive cut-off                           ...     2.500000e-12
Primitive pair pre-selection threshold      ...     2.500000e-12

Calculating pre-screening integrals         ... done (  0.1 sec) Dimension = 15
Organizing shell pair data                  ... done (  0.2 sec)
Shell pair information
Total number of shell pairs                 ...       120
Shell pairs after pre-screening             ...       111
Total number of primitive shell pairs       ...       376
Primitive shell pairs kept                  ...       313
          la=0 lb=0:     33 shell pairs
          la=1 lb=0:     29 shell pairs
          la=1 lb=1:     10 shell pairs
          la=2 lb=0:     15 shell pairs
          la=2 lb=1:      7 shell pairs
          la=2 lb=2:      3 shell pairs
          la=3 lb=0:      7 shell pairs
          la=3 lb=1:      4 shell pairs
          la=3 lb=2:      2 shell pairs
          la=3 lb=3:      1 shell pairs

Calculating one electron integrals          ... done (  0.0 sec)
Calculating Nuclear repulsion               ... done (  0.1 sec) ENN=      1.255257563874 Eh

SHARK setup successfully completed in   1.1 seconds

Maximum memory used throughout the entire GTOINT-calculation: 12.5 MB

Diagonalization of the overlap matrix:
Smallest eigenvalue                        ... 3.080e-02
Time for diagonalization                   ...    0.001 sec
Threshold for overlap eigenvalues          ... 1.000e-08
Number of eigenvalues below threshold      ... 0
Time for construction of square roots      ...    0.070 sec
Total time needed                          ...    0.094 sec

--------------
SCF ITERATIONS
--------------
ITER       Energy         Delta-E        Max-DP      RMS-DP      [F,P]     Damp
               ***  Starting incremental Fock matrix formation  ***
                      *** Initiating the SOSCF procedure ***
                      *** Re-Reading the Fockian *** 
                      *** Removing any level shift *** 
ITER      Energy       Delta-E        Grad      Rot      Max-DP    RMS-DP
  0    -99.64986396 -99.6498639647  0.000640  0.000640  0.000850  0.000064
               *** Restarting incremental Fock matrix formation ***
  1    -99.64986551  -0.0000015443  0.000525  0.002413  0.001393  0.000088
  2    -99.64986045   0.0000050556  0.001184  0.002112  0.000980  0.000066
  3    -99.64986677  -0.0000063148  0.000066  0.000031  0.000071  0.000005
  4    -99.64986678  -0.0000000124  0.000011  0.000018  0.000025  0.000002
  5    -99.64986678  -0.0000000014  0.000003  0.000004  0.000005  0.000000
                 **** Energy Check signals convergence ****
              ***Rediagonalizing the Fockian in SOSCF/NRSCF***

               *****************************************************
               *                     SUCCESS                       *
               *           SCF CONVERGED AFTER   6 CYCLES          *
               *****************************************************

Total Energy       :          -99.64986678 Eh           -2711.61073 eV
[...]
J-integral sorting                         ...    25.891 sec

-------------------------- SECOND HALF TRANSFORMATION --------------------------
Formation of (pq|rs)                       ... ok (    27.296 sec)
Integral sorting                           ... ok (     0.076 sec)

------------------
CLOSED SHELL GUESS
------------------

Initial guess performed in     0.000 sec
E(0)                                       ...    -99.386295432
E(MP2)                                     ...     -0.246635823
Initial E(tot)                             ...    -99.632931254
<T|T>                                      ...      0.037200064
Number of pairs included                   ... 10
Total number of pairs                      ... 10

------------------------------------------------
                  RHF COUPLED CLUSTER ITERATIONS
------------------------------------------------

Number of amplitudes to be optimized       ... 10368

Iter       E(tot)           E(Corr)          Delta-E          Residual     Time
  0    -99.632931254     -0.246635823      0.000000000      0.015350477    0.01
                           *** Turning on DIIS ***
  1    -99.635628241     -0.249332809     -0.002696986      0.002438971    0.03
  2    -99.638079197     -0.251783765     -0.002450956      0.000740757    0.02
  3    -99.638350455     -0.252055024     -0.000271258      0.000166869    0.04
  4    -99.638400840     -0.252105408     -0.000050385      0.000034922    0.03
  5    -99.638402656     -0.252107225     -0.000001816      0.000017013    0.03
  6    -99.638403105     -0.252107673     -0.000000448      0.000006044    0.02
               --- The Coupled-Cluster iterations have converged ---

----------------------
COUPLED CLUSTER ENERGY
----------------------

E(0)                                       ...    -99.386295432
E(CORR)                                    ...     -0.252107673
E(TOT)                                     ...    -99.638403105
Singles Norm <S|S>**1/2                    ...      0.015808801  
T1 diagnostic                              ...      0.005589255  

------------------
LARGEST AMPLITUDES
------------------
   3->  7   3->  7       0.019896
   4->  8   4->  8       0.019896
   4->  7   4->  7       0.018430
   3->  8   3->  8       0.018430
   3-> 19   3-> 19       0.018200
   4-> 20   4-> 20       0.018200
   2->  9   2->  9       0.017715
   4-> 14   4-> 14       0.016862
   3-> 13   3-> 13       0.016862
   4-> 13   4-> 13       0.016862
   3-> 14   3-> 14       0.016862
   2->  6   2->  6       0.015938
   3->  7   3->  8       0.015500
   3->  8   3->  7       0.015500
   4->  8   4->  7       0.015500
   4->  7   4->  8       0.015500


        !!!!!!!!!!!!!!!!!!!!!!!!!!!!!!!!!!!!!!!!!!!!!!!!!!!!!!!!!!!!!!!!!!!!!!!!!! 
        !  Warning: Densities are linearized densities !                         !
        !!!!!!!!!!!!!!!!!!!!!!!!!!!!!!!!!!!!!!!!!!!!!!!!!!!!!!!!!!!!!!!!!!!!!!!!!! 

Trace of internal density part =     -0.077860205
Trace of external density part =      0.077860205
----------------------
RHF TRIPLES CORRECTION (Algorithm 1)
----------------------

Multiplier for the singles contribution    ...      1.000000000

10% done
20% done
30% done
40% done
50% done
60% done
70% done
80% done
90% done

Triples Correction (T)                     ...     -0.004265142
Scaling of triples based on CCSD energies (Peterson et al. Molecular Physics 113, 1551 (2015))
E(T*) = f*E(T) where f = E(F12-CCSD)/E(CCSD) 
f = CCSD (with F12)/ CCSD (without F12)    ...      1.000000000
Scaled triples correction (T)              ...     -0.004265142

Final correlation energy                   ...     -0.256372815
E(CCSD)                                    ...    -99.638403105
E(CCSD(T))                                 ...    -99.642668247

NORM  =      1.039180021 sqrt=     1.019401795
W(HF) =      0.962297177
------------------------------------------------------------------------------
                           ORCA POPULATION ANALYSIS
------------------------------------------------------------------------------
Input electron density              ... CCSD_T.mdcip
BaseName (.gbw .S,...)              ... CCSD_T


--------------------------------------------------------------------------------
                                    TIMINGS
--------------------------------------------------------------------------------


Total execution time                   ...       81.609 sec

Fock Matrix Formation                  ...        0.380 sec (  0.5%)
Initial Guess                          ...        0.000 sec (  0.0%)
DIIS Solver                            ...        0.002 sec (  0.0%)
State Vector Update                    ...        0.000 sec (  0.0%)
Sigma-vector construction              ...        0.183 sec (  0.2%)
  <D|H|D>(0-ext)                       ...        0.001 sec (  0.6% of sigma)
  <D|H|D>(2-ext)                       ...        0.009 sec (  4.8% of sigma)
  <D|H|D>(4-ext)                       ...        0.016 sec (  9.0% of sigma)
  <D|H|D>(4-ext-corr)                  ...        0.011 sec (  5.9% of sigma)
  <D|H|S>(1-ext)                       ...        0.002 sec (  0.8% of sigma)
  <S|H|D>(3-ext)                       ...        0.004 sec (  2.2% of sigma)
  Fock-dressing                        ...        0.124 sec ( 68.0% of sigma)
  (ik|jl)-dressing                     ...        0.001 sec (  0.6% of sigma)
  (ij|ab),(ia|jb)-dressing             ...        0.010 sec (  5.3% of sigma)
Total Time for computing (T)           ...        0.254 sec (  0.3% of ALL)
  I/O of integral and amplitudes       ...        0.003 sec (  1.1% of (T))
  N**6 sorting step                    ...        0.012 sec (  4.6% of (T))
  External N**7 contributions          ...        0.023 sec (  9.2% of (T))
  Internal N**7 contributions          ...        0.005 sec (  2.0% of (T))
  N**6 triples energy contributions    ...        0.009 sec (  3.5% of (T))
One-particle density matrix            ...        0.033 sec (  0.0%)


Maximum memory used throughout the entire MDCI-calculation: 65.2 MB

-------------------------   --------------------
FINAL SINGLE POINT ENERGY       -99.642668246569
-------------------------   --------------------

Storing actual gbw-file in CCSD_T.035.gbw ... done

                            ***************************************
                            *     ORCA property calculations      *
                            ***************************************

                                    ---------------------
                                    Active property flags
                                    ---------------------
   (+) Dipole Moment


------------------------------------------------------------------------------
                       ORCA ELECTRIC PROPERTIES CALCULATION
------------------------------------------------------------------------------

Dipole Moment Calculation                       ... on
Quadrupole Moment Calculation                   ... off
Polarizability Calculation                      ... off
GBWName                                         ... CCSD_T.gbw
Electron density                                ... CCSD_T.scfp
The origin for moment calculation is the CENTER OF MASS  = ( 0.000000,  0.000000  0.897256)

-------------
DIPOLE MOMENT
-------------
                                X             Y             Z
Electronic contribution:      0.00000      -0.00000      -0.04153
Nuclear contribution   :      0.00000       0.00000      -0.46879
                        -----------------------------------------
Total Dipole Moment    :      0.00000      -0.00000      -0.51033
                        -----------------------------------------
Magnitude (a.u.)       :      0.51033
Magnitude (Debye)      :      1.29715



--------------------
Rotational spectrum 
--------------------
 
Rotational constants in cm-1:     0.000000    70.444768    70.444768 
Rotational constants in MHz :     0.000000 2111881.006407 2111881.006407 

 Dipole components along the rotational axes: 
x,y,z [a.u.] :    -0.510328    -0.000000     0.000000 
x,y,z [Debye]:    -1.297150    -0.000000     0.000000 

 

                           *** MDCI DENSITY ***

------------------------------------------------------------------------------
                       ORCA ELECTRIC PROPERTIES CALCULATION
------------------------------------------------------------------------------

Dipole Moment Calculation                       ... on
Quadrupole Moment Calculation                   ... off
Polarizability Calculation                      ... off
GBWName                                         ... CCSD_T.gbw
Electron density                                ... CCSD_T.mdcip
The origin for moment calculation is the CENTER OF MASS  = ( 0.000000,  0.000000  0.897256)

-------------
DIPOLE MOMENT
-------------
                                X             Y             Z
Electronic contribution:      0.00000      -0.00000      -0.04083
Nuclear contribution   :      0.00000       0.00000      -0.46879
                        -----------------------------------------
Total Dipole Moment    :      0.00000      -0.00000      -0.50962
                        -----------------------------------------
Magnitude (a.u.)       :      0.50962
Magnitude (Debye)      :      1.29535



--------------------
Rotational spectrum 
--------------------
 
Rotational constants in cm-1:     0.000000    70.444768    70.444768 
Rotational constants in MHz :     0.000000 2111881.006407 2111881.006407 

 Dipole components along the rotational axes: 
x,y,z [a.u.] :    -0.509621    -0.000000     0.000000 
x,y,z [Debye]:    -1.295353    -0.000000     0.000000 

 
                              **** TRAJECTORY DONE ***

                         SUMMARY OF THE CALCULATED SURFACE

------------------
TRAJECTORY RESULTS
------------------

Column   1: R

The Calculated Surface using the 'Actual Energy'
   4.00000000 -100.18704008
   3.89705882 -100.18597078
   3.79411765 -100.18466772
   3.69117647 -100.18310254
   3.58823529 -100.18123702
   3.48529412 -100.17906939
   3.38235294 -100.17655453
   3.27941176 -100.17368985
   3.17647059 -100.17047745
   3.07352941 -100.16694256
   2.97058824 -100.16313943
   2.86764706 -100.15916333
   2.76470588 -100.15515872
   2.66176471 -100.15132684
   2.55882353 -100.14793255
   2.45588235 -100.14530292
   2.35294118 -100.14381159
   2.25000000 -100.14388300
   2.14705882 -100.14593317
   2.04411765 -100.15033557
   1.94117647 -100.15742244
   1.83823529 -100.16743281
   1.73529412 -100.18050595
   1.63235294 -100.19667326
   1.52941176 -100.21585213
   1.42647059 -100.23777984
   1.32352941 -100.26191301
   1.22058824 -100.28718929
   1.11764706 -100.31158547
   1.01470588 -100.33127208
   0.91176471 -100.33891262
   0.80882353 -100.32029193
   0.70588235 -100.24780245
   0.60294118 -100.06446248
   0.50000000 -99.64266825

                        *******************************
                        *   FIT OF THE ACT-ENERGY PES *
                        *******************************
-------------------------------
POTENTIAL ENERGY SURFACE =   0
-------------------------------

Minimum found after 18 iterations
Equilibrium distance and its energy from the interpolated PES:
  Re      =   0.91926 Angstroem  (  1.73716 Bohr)
  E(Re)   =  -100.338969 Eh 
  dE/dR   = -8.050e-09 (-1.195e-02 CHEB)
  d2E/dR2 =    0.556280 (   0.597125 CHEB) (   0.981120 NUM)
  d3E/dR3 =   -1.382493 (  50.316641 CHEB)

Spectroscopic constants:
  we =    3933.6 cm**-1 (based on SPLINE)
  we =    4075.4 cm**-1 (based on CHEB)
  we =    5224.0 cm**-1 (based on NUM)

Performing Morse fit ...
Morse-Fit Results:
 Te(adiabatic)   =     129.7 cm**-1         =  0.016 eV
 d2E/dR**2 (Morse)=      0.772757644 
 d3E/dR**3 (Morse)=     -3.419980828 
 d4E/dR**4 (Morse)=     11.772252371 
 E0               =   -100.338377937 Eh  RMS=1.16e-05
 Re               =   0.89216 Angstroem      =  1.68594 Bohr RMS=6.75e-05)
 De(Morse)        =   4.83110 eV             =  38965.4 cm**-1 RMS=1.47e-05
 D0(Morse)        =   4.54369 eV
 beta             =   1.47523 au          RMS=1.16e-04
 we               =   4636.2 cm**-1
 wexe             =    137.8 cm**-1
 Displacement   =   -0.0271 Angstroem      = -0.05122 Bohr

The Calculated Surface using the SCF energy
   4.00000000 -99.64349138
   3.89705882 -99.64654651
   3.79411765 -99.64986678
   3.69117647 -99.65348157
   3.58823529 -99.65742370
   3.48529412 -99.66172991
   3.38235294 -99.66644138
   3.27941176 -99.67160428
   3.17647059 -99.67727021
   3.07352941 -99.68349662
   2.97058824 -99.69034713
   2.86764706 -99.69789185
   2.76470588 -99.70620776
   2.66176471 -99.71537941
   2.55882353 -99.72549979
   2.45588235 -99.73667164
   2.35294118 -99.74900863
   2.25000000 -99.76263632
   2.14705882 -99.77769227
   2.04411765 -99.79432468
   1.94117647 -99.81268863
   1.83823529 -99.83293842
   1.73529412 -99.85521345
   1.63235294 -99.87961408
   1.52941176 -99.90616227
   1.42647059 -99.93473445
   1.32352941 -99.96493570
   1.22058824 -99.99585912
   1.11764706 -100.02563715
   1.01470588 -100.05058767
   0.91176471 -100.06350113
   0.80882353 -100.05020209
   0.70588235 -99.98285483
   0.60294118 -99.80411845
   0.50000000 -99.38629543

                        *******************************
                        *       FIT OF THE SCF PES    *
                        *******************************
-------------------------------
POTENTIAL ENERGY SURFACE =   0
-------------------------------

Minimum found after 13 iterations
Equilibrium distance and its energy from the interpolated PES:
  Re      =   0.89602 Angstroem  (  1.69324 Bohr)
  E(Re)   =  -100.063799 Eh 
  dE/dR   = 5.679e-09 (-4.797e-02 CHEB)
  d2E/dR2 =    0.723519 (   0.811628 CHEB) (   1.044450 NUM)
  d3E/dR3 =   -5.060072 (  43.938529 CHEB)

Spectroscopic constants:
  we =    4486.1 cm**-1 (based on SPLINE)
  we =    4751.4 cm**-1 (based on CHEB)
  we =    5390.0 cm**-1 (based on NUM)

Performing Morse fit ...
Morse-Fit Results:
 Te(adiabatic)   =   -3423.1 cm**-1         = -0.424 eV
 d2E/dR**2 (Morse)=      0.748413529 
 d3E/dR**3 (Morse)=     -2.134074910 
 d4E/dR**4 (Morse)=      4.732964216 
 E0               =   -100.079396003 Eh  RMS=2.13e-05
 Re               =   0.95367 Angstroem      =  1.80218 Bohr RMS=4.49e-05)
 De(Morse)        =  11.27116 eV             =  90908.1 cm**-1 RMS=2.39e-05
 D0(Morse)        =  10.98832 eV
 beta             =   0.95049 au          RMS=6.24e-05
 we               =   4562.6 cm**-1
 wexe             =     57.2 cm**-1
 Displacement   =    0.0576 Angstroem      =  0.10894 Bohr

The Calculated Surface using the MDCI energy
   4.00000000 -100.18704008
   3.89705882 -100.18597078
   3.79411765 -100.18466772
   3.69117647 -100.18310254
   3.58823529 -100.18123702
   3.48529412 -100.17906939
   3.38235294 -100.17655453
   3.27941176 -100.17368985
   3.17647059 -100.17047745
   3.07352941 -100.16694256
   2.97058824 -100.16313943
   2.86764706 -100.15916333
   2.76470588 -100.15515872
   2.66176471 -100.15132684
   2.55882353 -100.14793255
   2.45588235 -100.14530292
   2.35294118 -100.14381159
   2.25000000 -100.14388300
   2.14705882 -100.14593317
   2.04411765 -100.15033557
   1.94117647 -100.15742244
   1.83823529 -100.16743281
   1.73529412 -100.18050595
   1.63235294 -100.19667326
   1.52941176 -100.21585213
   1.42647059 -100.23777984
   1.32352941 -100.26191301
   1.22058824 -100.28718929
   1.11764706 -100.31158547
   1.01470588 -100.33127208
   0.91176471 -100.33891262
   0.80882353 -100.32029193
   0.70588235 -100.24780245
   0.60294118 -100.06446248
   0.50000000 -99.64266825

                        *******************************
                        *      FIT OF THE MDCI PES    *
                        *******************************
-------------------------------
POTENTIAL ENERGY SURFACE =   0
-------------------------------

Minimum found after 18 iterations
Equilibrium distance and its energy from the interpolated PES:
  Re      =   0.91926 Angstroem  (  1.73716 Bohr)
  E(Re)   =  -100.338969 Eh 
  dE/dR   = -8.050e-09 (-1.195e-02 CHEB)
  d2E/dR2 =    0.556280 (   0.597125 CHEB) (   0.981120 NUM)
  d3E/dR3 =   -1.382493 (  50.316641 CHEB)

Spectroscopic constants:
  we =    3933.6 cm**-1 (based on SPLINE)
  we =    4075.4 cm**-1 (based on CHEB)
  we =    5224.0 cm**-1 (based on NUM)

Performing Morse fit ...
Morse-Fit Results:
 Te(adiabatic)   =     129.7 cm**-1         =  0.016 eV
 d2E/dR**2 (Morse)=      0.772757644 
 d3E/dR**3 (Morse)=     -3.419980828 
 d4E/dR**4 (Morse)=     11.772252371 
 E0               =   -100.338377937 Eh  RMS=1.16e-05
 Re               =   0.89216 Angstroem      =  1.68594 Bohr RMS=6.75e-05)
 De(Morse)        =   4.83110 eV             =  38965.4 cm**-1 RMS=1.47e-05
 D0(Morse)        =   4.54369 eV
 beta             =   1.47523 au          RMS=1.16e-04
 we               =   4636.2 cm**-1
 wexe             =    137.8 cm**-1
 Displacement   =   -0.0271 Angstroem      = -0.05122 Bohr

The Calculated Surface using the MDCI energy minus triple correction
   4.00000000 -100.09026836
   3.89705882 -100.09038941
   3.79411765 -100.09053574
   3.69117647 -100.09071436
   3.58823529 -100.09092849
   3.48529412 -100.09120336
   3.38235294 -100.09153880
   3.27941176 -100.09195899
   3.17647059 -100.09248824
   3.07352941 -100.09315985
   2.97058824 -100.09401822
   2.86764706 -100.09512264
   2.76470588 -100.09655187
   2.66176471 -100.09840843
   2.55882353 -100.10082506
   2.45588235 -100.10396953
   2.35294118 -100.10804488
   2.25000000 -100.11330222
   2.14705882 -100.12001833
   2.04411765 -100.12847792
   1.94117647 -100.13897596
   1.83823529 -100.15177315
   1.73529412 -100.16707395
   1.63235294 -100.18499967
   1.52941176 -100.20556059
   1.42647059 -100.22858410
   1.32352941 -100.25360280
   1.22058824 -100.27961584
   1.11764706 -100.30464684
   1.01470588 -100.32489937
   0.91176471 -100.33305850
   0.80882353 -100.31492151
   0.70588235 -100.24287288
   0.60294118 -100.05990361
   0.50000000 -99.63840310

                        *******************************
                        *      FIT OF THE MDCI1 PES   *
                        *******************************
-------------------------------
POTENTIAL ENERGY SURFACE =   0
-------------------------------

Minimum found after 24 iterations
Equilibrium distance and its energy from the interpolated PES:
  Re      =   0.91682 Angstroem  (  1.73254 Bohr)
  E(Re)   =  -100.333084 Eh 
  dE/dR   = 1.835e-08 (-1.607e-02 CHEB)
  d2E/dR2 =    0.563490 (   0.617354 CHEB) (   0.984866 NUM)
  d3E/dR3 =   -1.413393 (  49.695458 CHEB)

Spectroscopic constants:
  we =    3959.0 cm**-1 (based on SPLINE)
  we =    4143.9 cm**-1 (based on CHEB)
  we =    5234.0 cm**-1 (based on NUM)

Performing Morse fit ...
Morse-Fit Results:
 Te(adiabatic)   =   -2316.1 cm**-1         = -0.287 eV
 d2E/dR**2 (Morse)=      0.765757991 
 d3E/dR**3 (Morse)=     -2.828852800 
 d4E/dR**4 (Morse)=      8.128018660 
 E0               =   -100.343637588 Eh  RMS=4.42e-06
 Re               =   0.92045 Angstroem      =  1.73939 Bohr RMS=2.11e-05)
 De(Morse)        =   6.87095 eV             =  55418.0 cm**-1 RMS=4.68e-06
 D0(Morse)        =   6.58485 eV
 beta             =   1.23140 au          RMS=3.48e-05
 we               =   4615.2 cm**-1
 wexe             =     96.0 cm**-1
 Displacement   =    0.0036 Angstroem      =  0.00685 Bohr


Timings for individual modules:

Sum of individual times         ...     3417.499 sec (=  56.958 min)
GTO integral calculation        ...       45.386 sec (=   0.756 min)   1.3 %
SCF iterations                  ...      164.454 sec (=   2.741 min)   4.8 %
MDCI module                     ...     3207.660 sec (=  53.461 min)  93.9 %
                             ****ORCA TERMINATED NORMALLY****
TOTAL RUN TIME: 0 days 0 hours 58 minutes 13 seconds 310 msec
