
                                 *****************
                                 * O   R   C   A *
                                 *****************

                                            #,                                       
                                            ###                                      
                                            ####                                     
                                            #####                                    
                                            ######                                   
                                           ########,                                 
                                     ,,################,,,,,                         
                               ,,#################################,,                 
                          ,,##########################################,,             
                       ,#########################################, ''#####,          
                    ,#############################################,,   '####,        
                  ,##################################################,,,,####,       
                ,###########''''           ''''###############################       
              ,#####''   ,,,,##########,,,,          '''####'''          '####       
            ,##' ,,,,###########################,,,                        '##       
           ' ,,###''''                  '''############,,,                           
         ,,##''                                '''############,,,,        ,,,,,,###''
      ,#''                                            '''#######################'''  
     '                                                          ''''####''''         
             ,#######,   #######,   ,#######,      ##                                
            ,#'     '#,  ##    ##  ,#'     '#,    #''#        ######   ,####,        
            ##       ##  ##   ,#'  ##            #'  '#       #        #'  '#        
            ##       ##  #######   ##           ,######,      #####,   #    #        
            '#,     ,#'  ##    ##  '#,     ,#' ,#      #,         ##   #,  ,#        
             '#######'   ##     ##  '#######'  #'      '#     #####' # '####'        



                  #######################################################
                  #                        -***-                        #
                  #          Department of theory and spectroscopy      #
                  #    Directorship and core code : Frank Neese         #
                  #        Max Planck Institute fuer Kohlenforschung    #
                  #                Kaiser Wilhelm Platz 1               #
                  #                 D-45470 Muelheim/Ruhr               #
                  #                      Germany                        #
                  #                                                     #
                  #                  All rights reserved                #
                  #                        -***-                        #
                  #######################################################


                         Program Version 5.0.2 -  RELEASE  -


 With contributions from (in alphabetic order):
   Daniel Aravena         : Magnetic Suceptibility
   Michael Atanasov       : Ab Initio Ligand Field Theory (pilot matlab implementation)
   Alexander A. Auer      : GIAO ZORA, VPT2 properties, NMR spectrum
   Ute Becker             : Parallelization
   Giovanni Bistoni       : ED, misc. LED, open-shell LED, HFLD
   Martin Brehm           : Molecular dynamics
   Dmytro Bykov           : SCF Hessian
   Vijay G. Chilkuri      : MRCI spin determinant printing, contributions to CSF-ICE
   Dipayan Datta          : RHF DLPNO-CCSD density
   Achintya Kumar Dutta   : EOM-CC, STEOM-CC
   Dmitry Ganyushin       : Spin-Orbit,Spin-Spin,Magnetic field MRCI
   Miquel Garcia          : C-PCM and meta-GGA Hessian, CC/C-PCM, Gaussian charge scheme
   Yang Guo               : DLPNO-NEVPT2, F12-NEVPT2, CIM, IAO-localization
   Andreas Hansen         : Spin unrestricted coupled pair/coupled cluster methods
   Benjamin Helmich-Paris : MC-RPA, TRAH-SCF, COSX integrals
   Lee Huntington         : MR-EOM, pCC
   Robert Izsak           : Overlap fitted RIJCOSX, COSX-SCS-MP3, EOM
   Marcus Kettner         : VPT2
   Christian Kollmar      : KDIIS, OOCD, Brueckner-CCSD(T), CCSD density, CASPT2, CASPT2-K
   Simone Kossmann        : Meta GGA functionals, TD-DFT gradient, OOMP2, MP2 Hessian
   Martin Krupicka        : Initial AUTO-CI
   Lucas Lang             : DCDCAS
   Marvin Lechner         : AUTO-CI (C++ implementation), FIC-MRCC
   Dagmar Lenk            : GEPOL surface, SMD
   Dimitrios Liakos       : Extrapolation schemes; Compound Job, initial MDCI parallelization
   Dimitrios Manganas     : Further ROCIS development; embedding schemes
   Dimitrios Pantazis     : SARC Basis sets
   Anastasios Papadopoulos: AUTO-CI, single reference methods and gradients
   Taras Petrenko         : DFT Hessian,TD-DFT gradient, ASA, ECA, R-Raman, ABS, FL, XAS/XES, NRVS
   Peter Pinski           : DLPNO-MP2, DLPNO-MP2 Gradient
   Christoph Reimann      : Effective Core Potentials
   Marius Retegan         : Local ZFS, SOC
   Christoph Riplinger    : Optimizer, TS searches, QM/MM, DLPNO-CCSD(T), (RO)-DLPNO pert. Triples
   Tobias Risthaus        : Range-separated hybrids, TD-DFT gradient, RPA, STAB
   Michael Roemelt        : Original ROCIS implementation
   Masaaki Saitow         : Open-shell DLPNO-CCSD energy and density
   Barbara Sandhoefer     : DKH picture change effects
   Avijit Sen             : IP-ROCIS
   Kantharuban Sivalingam : CASSCF convergence, NEVPT2, FIC-MRCI
   Bernardo de Souza      : ESD, SOC TD-DFT
   Georgi Stoychev        : AutoAux, RI-MP2 NMR, DLPNO-MP2 response
   Willem Van den Heuvel  : Paramagnetic NMR
   Boris Wezisla          : Elementary symmetry handling
   Frank Wennmohs         : Technical directorship


 We gratefully acknowledge several colleagues who have allowed us to
 interface, adapt or use parts of their codes:
   Stefan Grimme, W. Hujo, H. Kruse, P. Pracht,  : VdW corrections, initial TS optimization,
                  C. Bannwarth, S. Ehlert          DFT functionals, gCP, sTDA/sTD-DF
   Ed Valeev, F. Pavosevic, A. Kumar             : LibInt (2-el integral package), F12 methods
   Garnet Chan, S. Sharma, J. Yang, R. Olivares  : DMRG
   Ulf Ekstrom                                   : XCFun DFT Library
   Mihaly Kallay                                 : mrcc  (arbitrary order and MRCC methods)
   Jiri Pittner, Ondrej Demel                    : Mk-CCSD
   Frank Weinhold                                : gennbo (NPA and NBO analysis)
   Christopher J. Cramer and Donald G. Truhlar   : smd solvation model
   Lars Goerigk                                  : TD-DFT with DH, B97 family of functionals
   V. Asgeirsson, H. Jonsson                     : NEB implementation
   FAccTs GmbH                                   : IRC, NEB, NEB-TS, DLPNO-Multilevel, CI-OPT
                                                   MM, QMMM, 2- and 3-layer-ONIOM, Crystal-QMMM,
                                                   LR-CPCM, SF, NACMEs, symmetry and pop. for TD-DFT,
                                                   nearIR, NL-DFT gradient (VV10), updates on ESD,
                                                   ML-optimized integration grids
   S Lehtola, MJT Oliveira, MAL Marques          : LibXC Library
   Liviu Ungur et al                             : ANISO software


 Your calculation uses the libint2 library for the computation of 2-el integrals
 For citations please refer to: http://libint.valeyev.net

 Your ORCA version has been built with support for libXC version: 5.1.0
 For citations please refer to: https://tddft.org/programs/libxc/

 This ORCA versions uses:
   CBLAS   interface :  Fast vector & matrix operations
   LAPACKE interface :  Fast linear algebra routines
   SCALAPACK package :  Parallel linear algebra routines
   Shared memory     :  Shared parallel matrices
   BLAS/LAPACK       :  OpenBLAS 0.3.15  USE64BITINT DYNAMIC_ARCH NO_AFFINITY Haswell SINGLE_THREADED
        Core in use  :  Haswell
   Copyright (c) 2011-2014, The OpenBLAS Project




***************************************
The coordinates will be read from file: B.xyz
***************************************


Your calculation utilizes the geometrical counterpoise correction gCP
Please cite in your paper:
H.Kruse, S. Grimme J.Chem.Phys., 136, (2012), 154101 
   

Your calculation utilizes the atom-pairwise dispersion correction
with the Becke-Johnson damping scheme (D3BJ)
Cite in your paper:
S.Grimme, S.Ehrlich, L.Goerigk, J Comput Chem, (2011), 32, 1456–1465 
S.Grimme, J.Antony, S.Ehrlich and H.Krieg, J.Chem.Phys., 132, (2010), 154104 
   

Your calculation employs the composite approach PBEh-3c.
Please cite in your paper:
S. Grimme, J. G. Brandenburg, C. Bannwarth, A. Hansen J.Chem.Phys., 143, (2015), 054107 
   

================================================================================

----- Orbital basis set information -----
Your calculation utilizes the basis: def2-mSVP

----- AuxJ basis set information -----
Your calculation utilizes the auxiliary basis: def2/J
   F. Weigend, Phys. Chem. Chem. Phys. 8, 1057 (2006).

================================================================================
                                        WARNINGS
                       Please study these warnings very carefully!
================================================================================


WARNING: Geometry Optimization
  ===> : Switching off AutoStart
         For restart on a previous wavefunction, please use MOREAD

INFO   : the flag for use of the SHARK integral package has been found!

================================================================================
                                       INPUT FILE
================================================================================
NAME = OPT_B.inp
|  1> ! PBEh-3c Opt
|  2> 
|  3> *xyzfile 0 1 B.xyz
|  4> 
|  5>                          ****END OF INPUT****
================================================================================

                       *****************************
                       * Geometry Optimization Run *
                       *****************************

Geometry optimization settings:
Update method            Update   .... BFGS
Choice of coordinates    CoordSys .... Z-matrix Internals
Initial Hessian          InHess   .... Almoef's Model

Convergence Tolerances:
Energy Change            TolE     ....  5.0000e-06 Eh
Max. Gradient            TolMAXG  ....  3.0000e-04 Eh/bohr
RMS Gradient             TolRMSG  ....  1.0000e-04 Eh/bohr
Max. Displacement        TolMAXD  ....  4.0000e-03 bohr
RMS Displacement         TolRMSD  ....  2.0000e-03 bohr
Strict Convergence                ....  False
------------------------------------------------------------------------------
                        ORCA OPTIMIZATION COORDINATE SETUP
------------------------------------------------------------------------------

The optimization will be done in new redundant internal coordinates
Making redundant internal coordinates   ...  (new redundants) done
Evaluating the initial hessian          ...  (Almloef) done
Evaluating the coordinates              ...  done
Calculating the B-matrix                .... done
Calculating the G-matrix                .... done
Diagonalizing the G-matrix              .... done
The first mode is                       ....   37
The number of degrees of freedom        ....   45

    -----------------------------------------------------------------
                    Redundant Internal Coordinates


    -----------------------------------------------------------------
         Definition                    Initial Value    Approx d2E/dq
    -----------------------------------------------------------------
      1. B(C   1,C   0)                  1.5401         0.359912   
      2. B(C   2,C   0)                  1.5401         0.359922   
      3. B(C   3,C   0)                  1.5401         0.359914   
      4. B(C   4,C   0)                  1.5401         0.359908   
      5. B(H   5,C   1)                  1.1115         0.332694   
      6. B(H   6,C   1)                  1.1115         0.332697   
      7. B(H   7,C   1)                  1.1115         0.332706   
      8. B(H   8,C   2)                  1.1115         0.332701   
      9. B(H   9,C   2)                  1.1115         0.332704   
     10. B(H  10,C   2)                  1.1115         0.332705   
     11. B(H  11,C   3)                  1.1115         0.332699   
     12. B(H  12,C   3)                  1.1115         0.332717   
     13. B(H  13,C   3)                  1.1115         0.332698   
     14. B(H  14,C   4)                  1.1115         0.332704   
     15. B(H  15,C   4)                  1.1115         0.332707   
     16. B(H  16,C   4)                  1.1115         0.332701   
     17. A(C   3,C   0,C   4)          109.4709         0.358763   
     18. A(C   1,C   0,C   4)          109.4709         0.358762   
     19. A(C   1,C   0,C   2)          109.4717         0.358765   
     20. A(C   2,C   0,C   4)          109.4713         0.358764   
     21. A(C   2,C   0,C   3)          109.4716         0.358765   
     22. A(C   1,C   0,C   3)          109.4708         0.358763   
     23. A(C   0,C   1,H   5)          110.6336         0.318199   
     24. A(H   6,C   1,H   7)          108.2839         0.283737   
     25. A(H   5,C   1,H   7)          108.2841         0.283737   
     26. A(C   0,C   1,H   7)          110.6344         0.318201   
     27. A(H   5,C   1,H   6)          108.2835         0.283735   
     28. A(C   0,C   1,H   6)          110.6340         0.318200   
     29. A(C   0,C   2,H   9)          110.6341         0.318202   
     30. A(C   0,C   2,H   8)          110.6341         0.318202   
     31. A(H   8,C   2,H   9)          108.2838         0.283737   
     32. A(H   9,C   2,H  10)          108.2843         0.283738   
     33. A(H   8,C   2,H  10)          108.2835         0.283737   
     34. A(C   0,C   2,H  10)          110.6338         0.318202   
     35. A(H  12,C   3,H  13)          108.2839         0.283738   
     36. A(H  11,C   3,H  13)          108.2837         0.283736   
     37. A(C   0,C   3,H  13)          110.6337         0.318200   
     38. A(H  11,C   3,H  12)          108.2839         0.283739   
     39. A(C   0,C   3,H  12)          110.6347         0.318203   
     40. A(C   0,C   3,H  11)          110.6336         0.318200   
     41. A(H  15,C   4,H  16)          108.2842         0.283738   
     42. A(H  14,C   4,H  16)          108.2840         0.283737   
     43. A(C   0,C   4,H  16)          110.6337         0.318200   
     44. A(H  14,C   4,H  15)          108.2842         0.283738   
     45. A(C   0,C   4,H  15)          110.6340         0.318201   
     46. A(C   0,C   4,H  14)          110.6334         0.318200   
     47. D(H   6,C   1,C   0,C   4)     60.0006         0.010393   
     48. D(H   7,C   1,C   0,C   4)    -59.9998         0.010393   
     49. D(H   7,C   1,C   0,C   3)     59.9995         0.010393   
     50. D(H   6,C   1,C   0,C   2)    -59.9996         0.010393   
     51. D(H   5,C   1,C   0,C   4)    179.9999         0.010393   
     52. D(H   6,C   1,C   0,C   3)    179.9998         0.010393   
     53. D(H   5,C   1,C   0,C   3)    -60.0009         0.010393   
     54. D(H   5,C   1,C   0,C   2)     59.9997         0.010393   
     55. D(H   7,C   1,C   0,C   2)   -180.0000         0.010393   
     56. D(H   9,C   2,C   0,C   3)    -59.9996         0.010393   
     57. D(H   8,C   2,C   0,C   4)   -179.9996         0.010393   
     58. D(H   8,C   2,C   0,C   3)     60.0004         0.010393   
     59. D(H   8,C   2,C   0,C   1)    -59.9996         0.010393   
     60. D(H   9,C   2,C   0,C   4)     60.0004         0.010393   
     61. D(H  10,C   2,C   0,C   4)    -60.0001         0.010393   
     62. D(H  10,C   2,C   0,C   3)    179.9999         0.010393   
     63. D(H  10,C   2,C   0,C   1)     59.9999         0.010393   
     64. D(H   9,C   2,C   0,C   1)   -179.9997         0.010393   
     65. D(H  13,C   3,C   0,C   2)     59.9997         0.010393   
     66. D(H  13,C   3,C   0,C   1)   -179.9997         0.010393   
     67. D(H  12,C   3,C   0,C   4)     59.9999         0.010393   
     68. D(H  12,C   3,C   0,C   2)   -179.9999         0.010393   
     69. D(H  12,C   3,C   0,C   1)    -59.9994         0.010393   
     70. D(H  11,C   3,C   0,C   4)   -179.9999         0.010393   
     71. D(H  11,C   3,C   0,C   2)    -59.9997         0.010393   
     72. D(H  13,C   3,C   0,C   4)    -60.0005         0.010393   
     73. D(H  11,C   3,C   0,C   1)     60.0008         0.010393   
     74. D(H  15,C   4,C   0,C   1)     59.9998         0.010393   
     75. D(H  14,C   4,C   0,C   3)     60.0007         0.010393   
     76. D(H  14,C   4,C   0,C   2)    -59.9997         0.010393   
     77. D(H  14,C   4,C   0,C   1)    179.9998         0.010393   
     78. D(H  16,C   4,C   0,C   3)   -179.9997         0.010393   
     79. D(H  16,C   4,C   0,C   2)     59.9999         0.010393   
     80. D(H  16,C   4,C   0,C   1)    -60.0005         0.010393   
     81. D(H  15,C   4,C   0,C   3)    -59.9994         0.010393   
     82. D(H  15,C   4,C   0,C   2)   -179.9998         0.010393   
    -----------------------------------------------------------------

Number of atoms                         .... 17
Number of degrees of freedom            .... 82

         *************************************************************
         *                GEOMETRY OPTIMIZATION CYCLE   1            *
         *************************************************************
---------------------------------
CARTESIAN COORDINATES (ANGSTROEM)
---------------------------------
  C     -3.219550    1.097600    0.602090
  C     -2.388360   -0.198940    0.590000
  C     -4.714590    0.750190    0.474900
  C     -2.797240    1.989190   -0.580600
  C     -2.977980    1.849970    1.924070
  H     -2.548510   -0.758070   -0.357240
  H     -2.677980   -0.857810    1.437080
  H     -1.304420    0.029800    0.680930
  H     -4.910870    0.205800   -0.474120
  H     -5.333260    1.673620    0.481580
  H     -5.040340    0.106070    1.320190
  H     -2.963740    1.464050   -1.546020
  H     -1.719660    2.251920   -0.507860
  H     -3.386130    2.931870   -0.590310
  H     -3.569680    2.790480    1.953260
  H     -1.903200    2.110540    2.035720
  H     -3.276760    1.222930    2.791870

----------------------------
CARTESIAN COORDINATES (A.U.)
----------------------------
  NO LB      ZA    FRAG     MASS         X           Y           Z
   0 C     6.0000    0    12.011   -6.084068    2.074163    1.137785
   1 C     6.0000    0    12.011   -4.513346   -0.375942    1.114938
   2 C     6.0000    0    12.011   -8.909284    1.417654    0.897431
   3 C     6.0000    0    12.011   -5.286018    3.759024   -1.097175
   4 C     6.0000    0    12.011   -5.627567    3.495937    3.635965
   5 H     1.0000    0     1.008   -4.815986   -1.432545   -0.675086
   6 H     1.0000    0     1.008   -5.060649   -1.621026    2.715688
   7 H     1.0000    0     1.008   -2.464997    0.056314    1.286771
   8 H     1.0000    0     1.008   -9.280199    0.388906   -0.895957
   9 H     1.0000    0     1.008  -10.078401    3.162683    0.910054
  10 H     1.0000    0     1.008   -9.524862    0.200443    2.494798
  11 H     1.0000    0     1.008   -5.600657    2.766654   -2.921554
  12 H     1.0000    0     1.008   -3.249686    4.255512   -0.959716
  13 H     1.0000    0     1.008   -6.398858    5.540431   -1.115524
  14 H     1.0000    0     1.008   -6.745718    5.273243    3.691126
  15 H     1.0000    0     1.008   -3.596527    3.988343    3.846953
  16 H     1.0000    0     1.008   -6.192179    2.311003    5.275870

--------------------------------
INTERNAL COORDINATES (ANGSTROEM)
--------------------------------
 C      0   0   0     0.000000000000     0.00000000     0.00000000
 C      1   0   0     1.540142511523     0.00000000     0.00000000
 C      1   2   0     1.540134931037   109.47167792     0.00000000
 C      1   2   3     1.540140935207   109.47082826   239.99944778
 C      1   2   3     1.540145383462   109.47093480   120.00020151
 H      2   1   3     1.111547568483   110.63358022    59.99965400
 H      2   1   3     1.111545747012   110.63395180   300.00035288
 H      2   1   3     1.111537752890   110.63444029   180.00002418
 H      3   1   2     1.111541843972   110.63406115   300.00037318
 H      3   1   2     1.111539543246   110.63407421   180.00033066
 H      3   1   2     1.111538942638   110.63382204    59.99986388
 H      4   1   2     1.111543991932   110.63356189    60.00084785
 H      4   1   2     1.111529044560   110.63467413   300.00063567
 H      4   1   2     1.111544555382   110.63374597   180.00029574
 H      5   1   2     1.111539475772   110.63339926   179.99984161
 H      5   1   2     1.111536997045   110.63400479    59.99976726
 H      5   1   2     1.111541942528   110.63366390   299.99950324

---------------------------
INTERNAL COORDINATES (A.U.)
---------------------------
 C      0   0   0     0.000000000000     0.00000000     0.00000000
 C      1   0   0     2.910447553988     0.00000000     0.00000000
 C      1   2   0     2.910433228945   109.47167792     0.00000000
 C      1   2   3     2.910444575182   109.47082826   239.99944778
 C      1   2   3     2.910452981167   109.47093480   120.00020151
 H      2   1   3     2.100520489259   110.63358022    59.99965400
 H      2   1   3     2.100517047177   110.63395180   300.00035288
 H      2   1   3     2.100501940477   110.63444029   180.00002418
 H      3   1   2     2.100509671500   110.63406115   300.00037318
 H      3   1   2     2.100505323759   110.63407421   180.00033066
 H      3   1   2     2.100504188774   110.63382204    59.99986388
 H      4   1   2     2.100513730557   110.63356189    60.00084785
 H      4   1   2     2.100485484117   110.63467413   300.00063567
 H      4   1   2     2.100514795324   110.63374597   180.00029574
 H      5   1   2     2.100505196252   110.63339926   179.99984161
 H      5   1   2     2.100500512136   110.63400479    59.99976726
 H      5   1   2     2.100509857746   110.63366390   299.99950324

---------------------
BASIS SET INFORMATION
---------------------
There are 2 groups of distinct atoms

 Group   1 Type C   : 8s4p1d contracted to 4s2p1d pattern {5111/31/1}
 Group   2 Type H   : 4s contracted to 2s pattern {31}

Atom   0C    basis set group =>   1
Atom   1C    basis set group =>   1
Atom   2C    basis set group =>   1
Atom   3C    basis set group =>   1
Atom   4C    basis set group =>   1
Atom   5H    basis set group =>   2
Atom   6H    basis set group =>   2
Atom   7H    basis set group =>   2
Atom   8H    basis set group =>   2
Atom   9H    basis set group =>   2
Atom  10H    basis set group =>   2
Atom  11H    basis set group =>   2
Atom  12H    basis set group =>   2
Atom  13H    basis set group =>   2
Atom  14H    basis set group =>   2
Atom  15H    basis set group =>   2
Atom  16H    basis set group =>   2
---------------------------------
AUXILIARY/J BASIS SET INFORMATION
---------------------------------
There are 2 groups of distinct atoms

 Group   1 Type C   : 12s5p4d2f1g contracted to 6s4p3d1f1g pattern {711111/2111/211/2/1}
 Group   2 Type H   : 5s2p1d contracted to 3s1p1d pattern {311/2/1}

Atom   0C    basis set group =>   1
Atom   1C    basis set group =>   1
Atom   2C    basis set group =>   1
Atom   3C    basis set group =>   1
Atom   4C    basis set group =>   1
Atom   5H    basis set group =>   2
Atom   6H    basis set group =>   2
Atom   7H    basis set group =>   2
Atom   8H    basis set group =>   2
Atom   9H    basis set group =>   2
Atom  10H    basis set group =>   2
Atom  11H    basis set group =>   2
Atom  12H    basis set group =>   2
Atom  13H    basis set group =>   2
Atom  14H    basis set group =>   2
Atom  15H    basis set group =>   2
Atom  16H    basis set group =>   2
------------------------------------------------------------------------------
                           ORCA GTO INTEGRAL CALCULATION
                           -- RI-GTO INTEGRALS CHOSEN --
------------------------------------------------------------------------------
------------------------------------------------------------------------------
                   ___                                                        
                  /   \      - P O W E R E D   B Y -                         
                 /     \                                                     
                 |  |  |   _    _      __       _____    __    __             
                 |  |  |  | |  | |    /  \     |  _  \  |  |  /  |          
                  \  \/   | |  | |   /    \    | | | |  |  | /  /          
                 / \  \   | |__| |  /  /\  \   | |_| |  |  |/  /          
                |  |  |   |  __  | /  /__\  \  |    /   |      \           
                |  |  |   | |  | | |   __   |  |    \   |  |\   \          
                \     /   | |  | | |  |  |  |  | |\  \  |  | \   \       
                 \___/    |_|  |_| |__|  |__|  |_| \__\ |__|  \__/        
                                                                              
                      - O R C A' S   B I G   F R I E N D -                    
                                      &                                       
                       - I N T E G R A L  F E E D E R -                       
                                                                              
 v1 FN, 2020, v2 2021                                                         
------------------------------------------------------------------------------


Reading SHARK input file OPT_B.SHARKINP.tmp ... ok
----------------------
SHARK INTEGRAL PACKAGE
----------------------

Number of atoms                             ...     17
Number of basis functions                   ...     99
Number of shells                            ...     59
Maximum angular momentum                    ...      2
Integral batch strategy                     ... SHARK/LIBINT Hybrid
RI-J (if used) integral strategy            ... SPLIT-RIJ (Revised 2003 algorithm where possible)
Printlevel                                  ...      1
Contraction scheme used                     ... SEGMENTED contraction
Coulomb Range Separation                    ... NOT USED
Exchange Range Separation                   ... NOT USED
Finite Nucleus Model                        ... NOT USED
Auxiliary Coulomb fitting basis             ... AVAILABLE
   # of basis functions in Aux-J            ...    377
   # of shells in Aux-J                     ...    135
   Maximum angular momentum in Aux-J        ...      4
Auxiliary J/K fitting basis                 ... NOT available
Auxiliary Correlation fitting basis         ... NOT available
Auxiliary 'external' fitting basis          ... NOT available
Integral threshold                          ...     2.500000e-11
Primitive cut-off                           ...     2.500000e-12
Primitive pair pre-selection threshold      ...     2.500000e-12

Calculating pre-screening integrals         ... done (  0.1 sec) Dimension = 59
Organizing shell pair data                  ... done (  0.0 sec)
Shell pair information
Total number of shell pairs                 ...      1770
Shell pairs after pre-screening             ...      1730
Total number of primitive shell pairs       ...      6542
Primitive shell pairs kept                  ...      4824
          la=0 lb=0:    950 shell pairs
          la=1 lb=0:    440 shell pairs
          la=1 lb=1:     55 shell pairs
          la=2 lb=0:    220 shell pairs
          la=2 lb=1:     50 shell pairs
          la=2 lb=2:     15 shell pairs

Calculating one electron integrals          ... done (  0.0 sec)
Calculating RI/J V-Matrix + Cholesky decomp.... done (  0.0 sec)
Calculating Nuclear repulsion               ... done (  0.0 sec) ENN=    197.134843632258 Eh

SHARK setup successfully completed in   0.3 seconds

Maximum memory used throughout the entire GTOINT-calculation: 11.1 MB
-------------------------------------------------------------------------------
                                 ORCA SCF
-------------------------------------------------------------------------------

------------
SCF SETTINGS
------------
Hamiltonian:
 Density Functional     Method          .... DFT(GTOs)
 Exchange Functional    Exchange        .... PBE
   PBE kappa parameter   XKappa         ....  1.024500
   PBE mue parameter    XMuePBE         ....  0.123457
 Correlation Functional Correlation     .... PBE
   PBE beta parameter  CBetaPBE         ....  0.030000
 LDA part of GGA corr.  LDAOpt          .... PW91-LDA
 Gradients option       PostSCFGGA      .... off
 Hybrid DFT is turned on
   Fraction HF Exchange ScalHFX         ....  0.420000
   Scaling of DF-GGA-X  ScalDFX         ....  0.580000
   Scaling of DF-GGA-C  ScalDFC         ....  1.000000
   Scaling of DF-LDA-C  ScalLDAC        ....  1.000000
   Perturbative correction              ....  0.000000
   Density functional embedding theory  .... OFF
 RI-approximation to the Coulomb term is turned on
   Number of AuxJ basis functions       .... 377
   RIJ-ON(X) (HFX calculated with O(N)) .... on
   Number of AuxJ basis functions       .... 377
   RIJ-COSX (HFX calculated with COS-X)).... on


General Settings:
 Integral files         IntName         .... OPT_B
 Hartree-Fock type      HFTyp           .... RHF
 Total Charge           Charge          ....    0
 Multiplicity           Mult            ....    1
 Number of Electrons    NEL             ....   42
 Basis Dimension        Dim             ....   99
 Nuclear Repulsion      ENuc            ....    197.1348436323 Eh

Convergence Acceleration:
 DIIS                   CNVDIIS         .... on
   Start iteration      DIISMaxIt       ....    12
   Startup error        DIISStart       ....  0.200000
   # of expansion vecs  DIISMaxEq       ....     5
   Bias factor          DIISBfac        ....   1.050
   Max. coefficient     DIISMaxC        ....  10.000
 Trust-Rad. Augm. Hess. CNVTRAH         .... auto
   Auto Start mean grad. ratio tolernc. ....  1.125000
   Auto Start start iteration           ....    20
   Auto Start num. interpolation iter.  ....    10
   Max. Number of Micro iterations      ....    16
   Max. Number of Macro iterations      .... Maxiter - #DIIS iter
   Number of Davidson start vectors     ....     2
   Converg. threshold I  (grad. norm)   ....   1.000e-05
   Converg. threshold II (energy diff.) ....   1.000e-08
   Grad. Scal. Fac. for Micro threshold ....   0.100
   Minimum threshold for Micro iter.    ....   0.010
   NR start threshold (gradient norm)   ....   0.001
   Initial trust radius                 ....   0.400
   Minimum AH scaling param. (alpha)    ....   1.000
   Maximum AH scaling param. (alpha)    .... 1000.000
   Orbital update algorithm             .... Taylor
   White noise on init. David. guess    .... on
   Maximum white noise                  ....   0.010
   Quad. conv. algorithm                .... NR
   COSX micro iterations for RIJONX calc.... off
 SOSCF                  CNVSOSCF        .... on
   Start iteration      SOSCFMaxIt      ....   150
   Startup grad/error   SOSCFStart      ....  0.003300
 Level Shifting         CNVShift        .... on
   Level shift para.    LevelShift      ....    0.2500
   Turn off err/grad.   ShiftErr        ....    0.0010
 Zerner damping         CNVZerner       .... off
 Static damping         CNVDamp         .... on
   Fraction old density DampFac         ....    0.7000
   Max. Damping (<1)    DampMax         ....    0.9800
   Min. Damping (>=0)   DampMin         ....    0.0000
   Turn off err/grad.   DampErr         ....    0.1000
 Fernandez-Rico         CNVRico         .... off

SCF Procedure:
 Maximum # iterations   MaxIter         ....   125
 SCF integral mode      SCFMode         .... Direct
   Integral package                     .... SHARK and LIBINT hybrid scheme
 Reset frequency        DirectResetFreq ....    20
 Integral Threshold     Thresh          ....  2.500e-11 Eh
 Primitive CutOff       TCut            ....  2.500e-12 Eh

Convergence Tolerance:
 Convergence Check Mode ConvCheckMode   .... Total+1el-Energy
 Convergence forced     ConvForced      .... 0
 Energy Change          TolE            ....  1.000e-08 Eh
 1-El. energy change                    ....  1.000e-05 Eh
 Orbital Gradient       TolG            ....  1.000e-05
 Orbital Rotation angle TolX            ....  1.000e-05
 DIIS Error             TolErr          ....  5.000e-07


Diagonalization of the overlap matrix:
Smallest eigenvalue                        ... 6.188e-03
Time for diagonalization                   ...    0.025 sec
Threshold for overlap eigenvalues          ... 1.000e-08
Number of eigenvalues below threshold      ... 0
Time for construction of square roots      ...    0.000 sec
Total time needed                          ...    0.026 sec

--------------------------------
INITIAL GUESS: MINIMAL BASIS EHT
--------------------------------
The minimal basis has 37 functions
EHT matrix was diagonalized
Basis set overlap was calculated now projecting the orbitals
Using GuessMode=FMatrix for the initial guess
C*T matrix was formed
Effective Fockian was calculated
Effective Fockian was diagonalized
Initial density was built
                      ------------------
                      INITIAL GUESS DONE
                      ------------------
-------------------
DFT GRID GENERATION
-------------------

General Integration Accuracy     IntAcc      ... 4.159
Radial Grid Type                 RadialGrid  ... OptM3 with GC (2021)
Angular Grid (max. ang.)         AngularGrid ... 3 (Lebedev-194)
Angular grid pruning method      GridPruning ... 4 (adaptive)
Weight generation scheme         WeightScheme... Becke
Basis function cutoff            BFCut       ... 1.0000e-11
Integration weight cutoff        WCut        ... 1.0000e-14
Angular grids for H and He will be reduced by one unit
Partially contracted basis set               ... off
Rotationally invariant grid construction     ... off

Total number of grid points                  ...    33089
Total number of batches                      ...      526
Average number of points per batch           ...       62
Average number of grid points per atom       ...     1946
Time for grid setup =    0.412 sec

--------------------
COSX GRID GENERATION
--------------------

GRIDX 1
-------
General Integration Accuracy     IntAcc      ... 3.816
Radial Grid Type                 RadialGrid  ... OptM3 with GC (2021)
Angular Grid (max. ang.)         AngularGrid ... 1 (Lebedev-50)
Angular grid pruning method      GridPruning ... 4 (adaptive)
Weight generation scheme         WeightScheme... Becke
Basis function cutoff            BFCut       ... 1.0000e-11
Integration weight cutoff        WCut        ... 1.0000e-14
Angular grids for H and He will be reduced by one unit
Partially contracted basis set               ... on
Rotationally invariant grid construction     ... off

Total number of grid points                  ...     8834
Total number of batches                      ...      149
Average number of points per batch           ...       59
Average number of grid points per atom       ...      520
UseSFitting                                  ... on

GRIDX 2
-------
General Integration Accuracy     IntAcc      ... 4.020
Radial Grid Type                 RadialGrid  ... OptM3 with GC (2021)
Angular Grid (max. ang.)         AngularGrid ... 2 (Lebedev-110)
Angular grid pruning method      GridPruning ... 4 (adaptive)
Weight generation scheme         WeightScheme... Becke
Basis function cutoff            BFCut       ... 1.0000e-11
Integration weight cutoff        WCut        ... 1.0000e-14
Angular grids for H and He will be reduced by one unit
Partially contracted basis set               ... on
Rotationally invariant grid construction     ... off

Total number of grid points                  ...    18079
Total number of batches                      ...      290
Average number of points per batch           ...       62
Average number of grid points per atom       ...     1063
UseSFitting                                  ... on

GRIDX 3
-------
General Integration Accuracy     IntAcc      ... 4.338
Radial Grid Type                 RadialGrid  ... OptM3 with GC (2021)
Angular Grid (max. ang.)         AngularGrid ... 3 (Lebedev-194)
Angular grid pruning method      GridPruning ... 4 (adaptive)
Weight generation scheme         WeightScheme... Becke
Basis function cutoff            BFCut       ... 1.0000e-11
Integration weight cutoff        WCut        ... 1.0000e-14
Angular grids for H and He will be reduced by one unit
Partially contracted basis set               ... on
Rotationally invariant grid construction     ... off

Total number of grid points                  ...    39303
Total number of batches                      ...      624
Average number of points per batch           ...       62
Average number of grid points per atom       ...     2312
UseSFitting                                  ... on

Time for X-Grid setup             =    1.730 sec

--------------
SCF ITERATIONS
--------------
ITER       Energy         Delta-E        Max-DP      RMS-DP      [F,P]     Damp
               ***  Starting incremental Fock matrix formation  ***
  0   -196.9991969824   0.000000000000 0.06138709  0.00231265  0.3787355 0.7000
  1   -197.1016811646  -0.102484182225 0.04495665  0.00179638  0.2682769 0.7000
                               ***Turning on DIIS***
  2   -197.1747668971  -0.073085732468 0.03470610  0.00135492  0.1892313 0.7000
  3   -197.2264860662  -0.051719169073 0.03002039  0.00106862  0.1333426 0.7000
  4   -197.2630430583  -0.036556992099 0.07642577  0.00268882  0.0933720 0.0000
                      *** Initiating the SOSCF procedure ***
                           *** Shutting down DIIS ***
                      *** Re-Reading the Fockian *** 
                      *** Removing any level shift *** 
ITER      Energy       Delta-E        Grad      Rot      Max-DP    RMS-DP
  5   -197.34969314  -0.0866500837  0.000779  0.000779  0.002793  0.000187
               *** Restarting incremental Fock matrix formation ***
  6   -197.34963523   0.0000579078  0.000390  0.000608  0.001430  0.000079
  7   -197.34963585  -0.0000006120  0.000411  0.000269  0.000563  0.000032
  8   -197.34964011  -0.0000042664  0.000024  0.000027  0.000077  0.000003
  9   -197.34964012  -0.0000000063  0.000023  0.000011  0.000036  0.000001
                 **** Energy Check signals convergence ****
              ***Rediagonalizing the Fockian in SOSCF/NRSCF***

               *****************************************************
               *                     SUCCESS                       *
               *           SCF CONVERGED AFTER  10 CYCLES          *
               *****************************************************

Old exchange energy                            =    -12.637331203 Eh
New exchange energy                            =    -12.637311916 Eh
Exchange energy change after final integration =      0.000019287 Eh
Total energy after final integration           =   -197.349620838 Eh
Final COS-X integration done in                =     7.496 sec

----------------
TOTAL SCF ENERGY
----------------

Total Energy       :         -197.34962084 Eh           -5370.15620 eV

Components:
Nuclear Repulsion  :          197.13484363 Eh            5364.31181 eV
Electronic Energy  :         -394.48446447 Eh          -10734.46801 eV
One Electron Energy:         -654.62406867 Eh          -17813.22652 eV
Two Electron Energy:          260.13960420 Eh            7078.75851 eV
Max COSX asymmetry :            0.00000377 Eh               0.00010 eV

Virial components:
Potential Energy   :         -392.62129318 Eh          -10683.76854 eV
Kinetic Energy     :          195.27167234 Eh            5313.61234 eV
Virial Ratio       :            2.01064132


DFT components:
N(Alpha)           :       21.000016955193 electrons
N(Beta)            :       21.000016955193 electrons
N(Total)           :       42.000033910386 electrons
E(X)               :      -16.734269781734 Eh       
E(C)               :       -1.759924127023 Eh       
E(XC)              :      -18.494193908757 Eh       
DFET-embed. en.    :        0.000000000000 Eh       

---------------
SCF CONVERGENCE
---------------

  Last Energy change         ...   -6.4549e-09  Tolerance :   1.0000e-08
  Last MAX-Density change    ...    1.4433e-15  Tolerance :   1.0000e-07
  Last RMS-Density change    ...    4.9295e-17  Tolerance :   5.0000e-09
  Last Orbital Gradient      ...    5.1653e-07  Tolerance :   1.0000e-05
  Last Orbital Rotation      ...    9.8481e-07  Tolerance :   1.0000e-05

             **** THE GBW FILE WAS UPDATED (OPT_B.gbw) ****
             **** DENSITY OPT_B.scfp WAS UPDATED ****
             **** ENERGY FILE WAS UPDATED (OPT_B.en.tmp) ****
             **** THE GBW FILE WAS UPDATED (OPT_B.gbw) ****
             **** DENSITY OPT_B.scfp WAS UPDATED ****
----------------
ORBITAL ENERGIES
----------------

  NO   OCC          E(Eh)            E(eV) 
   0   2.0000     -10.451899      -284.4106 
   1   2.0000     -10.425785      -283.7000 
   2   2.0000     -10.425774      -283.6997 
   3   2.0000     -10.425766      -283.6995 
   4   2.0000     -10.425658      -283.6966 
   5   2.0000      -0.907119       -24.6840 
   6   2.0000      -0.755845       -20.5676 
   7   2.0000      -0.755833       -20.5672 
   8   2.0000      -0.755825       -20.5671 
   9   2.0000      -0.592019       -16.1097 
  10   2.0000      -0.499968       -13.6048 
  11   2.0000      -0.499945       -13.6042 
  12   2.0000      -0.499940       -13.6041 
  13   2.0000      -0.448247       -12.1974 
  14   2.0000      -0.448228       -12.1969 
  15   2.0000      -0.408255       -11.1092 
  16   2.0000      -0.408252       -11.1091 
  17   2.0000      -0.408240       -11.1088 
  18   2.0000      -0.363619        -9.8946 
  19   2.0000      -0.363605        -9.8942 
  20   2.0000      -0.363600        -9.8941 
  21   0.0000       0.112623         3.0646 
  22   0.0000       0.179443         4.8829 
  23   0.0000       0.179477         4.8838 
  24   0.0000       0.179499         4.8844 
  25   0.0000       0.211093         5.7441 
  26   0.0000       0.211142         5.7455 
  27   0.0000       0.218683         5.9507 
  28   0.0000       0.218705         5.9513 
  29   0.0000       0.218716         5.9516 
  30   0.0000       0.231911         6.3106 
  31   0.0000       0.255121         6.9422 
  32   0.0000       0.255162         6.9433 
  33   0.0000       0.255164         6.9434 
  34   0.0000       0.277005         7.5377 
  35   0.0000       0.277016         7.5380 
  36   0.0000       0.277018         7.5380 
  37   0.0000       0.524820        14.2811 
  38   0.0000       0.524880        14.2827 
  39   0.0000       0.534072        14.5328 
  40   0.0000       0.534105        14.5337 
  41   0.0000       0.534147        14.5349 
  42   0.0000       0.590186        16.0598 
  43   0.0000       0.590198        16.0601 
  44   0.0000       0.590249        16.0615 
  45   0.0000       0.647205        17.6113 
  46   0.0000       0.752958        20.4890 
  47   0.0000       0.753092        20.4927 
  48   0.0000       0.753151        20.4943 
  49   0.0000       0.802344        21.8329 
  50   0.0000       0.802368        21.8336 
  51   0.0000       0.802397        21.8343 
  52   0.0000       0.948180        25.8013 
  53   0.0000       1.006787        27.3961 
  54   0.0000       1.019871        27.7521 
  55   0.0000       1.019873        27.7521 
  56   0.0000       1.019884        27.7525 
  57   0.0000       1.031578        28.0707 
  58   0.0000       1.031590        28.0710 
  59   0.0000       1.031601        28.0713 
  60   0.0000       1.082122        29.4460 
  61   0.0000       1.082139        29.4465 
  62   0.0000       1.083758        29.4906 
  63   0.0000       1.083772        29.4909 
  64   0.0000       1.083782        29.4912 
  65   0.0000       1.456891        39.6440 
  66   0.0000       1.456908        39.6445 
  67   0.0000       1.463255        39.8172 
  68   0.0000       1.463317        39.8189 
  69   0.0000       1.463371        39.8203 
  70   0.0000       1.517837        41.3025 
  71   0.0000       1.806254        49.1507 
  72   0.0000       1.806276        49.1513 
  73   0.0000       1.806311        49.1522 
  74   0.0000       1.904543        51.8252 
  75   0.0000       1.904584        51.8264 
  76   0.0000       1.904620        51.8273 
  77   0.0000       2.135081        58.0985 
  78   0.0000       2.135100        58.0990 
  79   0.0000       2.135106        58.0992 
  80   0.0000       2.140724        58.2520 
  81   0.0000       2.140733        58.2523 
  82   0.0000       2.293460        62.4082 
  83   0.0000       2.301944        62.6391 
  84   0.0000       2.301954        62.6394 
  85   0.0000       2.301962        62.6396 
  86   0.0000       2.310076        62.8604 
  87   0.0000       2.310079        62.8604 
  88   0.0000       2.310087        62.8606 
  89   0.0000       2.651367        72.1474 
  90   0.0000       2.651381        72.1478 
  91   0.0000       2.748688        74.7956 
  92   0.0000       2.748696        74.7958 
  93   0.0000       2.748705        74.7961 
  94   0.0000      13.519802       367.8925 
  95   0.0000      13.873074       377.5055 
  96   0.0000      13.873102       377.5063 
  97   0.0000      13.873123       377.5069 
  98   0.0000      14.127787       384.4366 

                    ********************************
                    * MULLIKEN POPULATION ANALYSIS *
                    ********************************

-----------------------
MULLIKEN ATOMIC CHARGES
-----------------------
   0 C :   -0.095040
   1 C :   -0.598203
   2 C :   -0.598141
   3 C :   -0.597767
   4 C :   -0.597742
   5 H :    0.207268
   6 H :    0.207290
   7 H :    0.207287
   8 H :    0.207247
   9 H :    0.207376
  10 H :    0.207221
  11 H :    0.207150
  12 H :    0.207201
  13 H :    0.207251
  14 H :    0.207228
  15 H :    0.207205
  16 H :    0.207167
Sum of atomic charges:   -0.0000000

--------------------------------
MULLIKEN REDUCED ORBITAL CHARGES
--------------------------------
  0 C s       :     3.239504  s :     3.239504
      pz      :     0.933740  p :     2.801760
      px      :     0.933978
      py      :     0.934041
      dz2     :     0.011990  d :     0.053775
      dxz     :     0.007162
      dyz     :     0.012701
      dx2y2   :     0.010825
      dxy     :     0.011097
  1 C s       :     3.383326  s :     3.383326
      pz      :     1.115228  p :     3.178717
      px      :     1.066477
      py      :     0.997012
      dz2     :     0.007356  d :     0.036159
      dxz     :     0.001747
      dyz     :     0.012080
      dx2y2   :     0.009295
      dxy     :     0.005682
  2 C s       :     3.383247  s :     3.383247
      pz      :     1.114075  p :     3.178740
      px      :     0.958163
      py      :     1.106502
      dz2     :     0.007467  d :     0.036154
      dxz     :     0.004313
      dyz     :     0.009375
      dx2y2   :     0.005426
      dxy     :     0.009573
  3 C s       :     3.383166  s :     3.383166
      pz      :     1.016780  p :     3.178445
      px      :     1.102484
      py      :     1.059181
      dz2     :     0.010640  d :     0.036156
      dxz     :     0.002198
      dyz     :     0.008084
      dx2y2   :     0.007510
      dxy     :     0.007724
  4 C s       :     3.383165  s :     3.383165
      pz      :     0.992262  p :     3.178422
      px      :     1.110919
      py      :     1.075240
      dz2     :     0.009448  d :     0.036155
      dxz     :     0.003245
      dyz     :     0.008834
      dx2y2   :     0.007035
      dxy     :     0.007593
  5 H s       :     0.792732  s :     0.792732
  6 H s       :     0.792710  s :     0.792710
  7 H s       :     0.792713  s :     0.792713
  8 H s       :     0.792753  s :     0.792753
  9 H s       :     0.792624  s :     0.792624
 10 H s       :     0.792779  s :     0.792779
 11 H s       :     0.792850  s :     0.792850
 12 H s       :     0.792799  s :     0.792799
 13 H s       :     0.792749  s :     0.792749
 14 H s       :     0.792772  s :     0.792772
 15 H s       :     0.792795  s :     0.792795
 16 H s       :     0.792833  s :     0.792833


                     *******************************
                     * LOEWDIN POPULATION ANALYSIS *
                     *******************************

----------------------
LOEWDIN ATOMIC CHARGES
----------------------
   0 C :   -0.114620
   1 C :   -0.341883
   2 C :   -0.341927
   3 C :   -0.341828
   4 C :   -0.341831
   5 H :    0.123520
   6 H :    0.123522
   7 H :    0.123512
   8 H :    0.123507
   9 H :    0.123543
  10 H :    0.123499
  11 H :    0.123478
  12 H :    0.123501
  13 H :    0.123519
  14 H :    0.123510
  15 H :    0.123503
  16 H :    0.123477

-------------------------------
LOEWDIN REDUCED ORBITAL CHARGES
-------------------------------
  0 C s       :     2.850195  s :     2.850195
      pz      :     1.046930  p :     3.140832
      px      :     1.046937
      py      :     1.046965
      dz2     :     0.027994  d :     0.123594
      dxz     :     0.015189
      dyz     :     0.029881
      dx2y2   :     0.024908
      dxy     :     0.025622
  1 C s       :     2.967678  s :     2.967678
      pz      :     1.121404  p :     3.307009
      px      :     1.104701
      py      :     1.080903
      dz2     :     0.012968  d :     0.067196
      dxz     :     0.002922
      dyz     :     0.021462
      dx2y2   :     0.017600
      dxy     :     0.012244
  2 C s       :     2.967678  s :     2.967678
      pz      :     1.120999  p :     3.307059
      px      :     1.067622
      py      :     1.118439
      dz2     :     0.013157  d :     0.067190
      dxz     :     0.008826
      dyz     :     0.015370
      dx2y2   :     0.011753
      dxy     :     0.018084
  3 C s       :     2.967660  s :     2.967660
      pz      :     1.087692  p :     3.306973
      px      :     1.117071
      py      :     1.102210
      dz2     :     0.019743  d :     0.067195
      dxz     :     0.004760
      dyz     :     0.016114
      dx2y2   :     0.013087
      dxy     :     0.013490
  4 C s       :     2.967667  s :     2.967667
      pz      :     1.079294  p :     3.306969
      px      :     1.119961
      py      :     1.107714
      dz2     :     0.018403  d :     0.067195
      dxz     :     0.006637
      dyz     :     0.017400
      dx2y2   :     0.011916
      dxy     :     0.012839
  5 H s       :     0.876480  s :     0.876480
  6 H s       :     0.876478  s :     0.876478
  7 H s       :     0.876488  s :     0.876488
  8 H s       :     0.876493  s :     0.876493
  9 H s       :     0.876457  s :     0.876457
 10 H s       :     0.876501  s :     0.876501
 11 H s       :     0.876522  s :     0.876522
 12 H s       :     0.876499  s :     0.876499
 13 H s       :     0.876481  s :     0.876481
 14 H s       :     0.876490  s :     0.876490
 15 H s       :     0.876497  s :     0.876497
 16 H s       :     0.876523  s :     0.876523


                      *****************************
                      * MAYER POPULATION ANALYSIS *
                      *****************************

  NA   - Mulliken gross atomic population
  ZA   - Total nuclear charge
  QA   - Mulliken gross atomic charge
  VA   - Mayer's total valence
  BVA  - Mayer's bonded valence
  FA   - Mayer's free valence

  ATOM       NA         ZA         QA         VA         BVA        FA
  0 C      6.0950     6.0000    -0.0950     3.8298     3.8298    -0.0000
  1 C      6.5982     6.0000    -0.5982     3.6852     3.6852     0.0000
  2 C      6.5981     6.0000    -0.5981     3.6852     3.6852    -0.0000
  3 C      6.5978     6.0000    -0.5978     3.6854     3.6854    -0.0000
  4 C      6.5977     6.0000    -0.5977     3.6854     3.6854    -0.0000
  5 H      0.7927     1.0000     0.2073     0.9222     0.9222    -0.0000
  6 H      0.7927     1.0000     0.2073     0.9222     0.9222    -0.0000
  7 H      0.7927     1.0000     0.2073     0.9222     0.9222     0.0000
  8 H      0.7928     1.0000     0.2072     0.9222     0.9222    -0.0000
  9 H      0.7926     1.0000     0.2074     0.9221     0.9221     0.0000
 10 H      0.7928     1.0000     0.2072     0.9222     0.9222    -0.0000
 11 H      0.7928     1.0000     0.2072     0.9223     0.9223    -0.0000
 12 H      0.7928     1.0000     0.2072     0.9222     0.9222    -0.0000
 13 H      0.7927     1.0000     0.2073     0.9222     0.9222    -0.0000
 14 H      0.7928     1.0000     0.2072     0.9222     0.9222    -0.0000
 15 H      0.7928     1.0000     0.2072     0.9222     0.9222     0.0000
 16 H      0.7928     1.0000     0.2072     0.9222     0.9222     0.0000

  Mayer bond orders larger than 0.100000
B(  0-C ,  1-C ) :   0.9753 B(  0-C ,  2-C ) :   0.9754 B(  0-C ,  3-C ) :   0.9755 
B(  0-C ,  4-C ) :   0.9754 B(  1-C ,  5-H ) :   0.9305 B(  1-C ,  6-H ) :   0.9305 
B(  1-C ,  7-H ) :   0.9304 B(  2-C ,  8-H ) :   0.9305 B(  2-C ,  9-H ) :   0.9304 
B(  2-C , 10-H ) :   0.9305 B(  3-C , 11-H ) :   0.9305 B(  3-C , 12-H ) :   0.9304 
B(  3-C , 13-H ) :   0.9304 B(  4-C , 14-H ) :   0.9304 B(  4-C , 15-H ) :   0.9305 
B(  4-C , 16-H ) :   0.9305 

-------
TIMINGS
-------

Total SCF time: 0 days 0 hours 0 min 47 sec 

Total time                  ....      47.776 sec
Sum of individual times     ....      47.553 sec  ( 99.5%)

Fock matrix formation       ....      45.375 sec  ( 95.0%)
  Split-RI-J                ....       3.400 sec  (  7.5% of F)
  Chain of spheres X        ....      36.201 sec  ( 79.8% of F)
  XC integration            ....       5.798 sec  ( 12.8% of F)
    Basis function eval.    ....       2.304 sec  ( 39.7% of XC)
    Density eval.           ....       1.371 sec  ( 23.7% of XC)
    XC-Functional eval.     ....       0.759 sec  ( 13.1% of XC)
    XC-Potential eval.      ....       1.097 sec  ( 18.9% of XC)
Diagonalization             ....       0.016 sec  (  0.0%)
Density matrix formation    ....       0.001 sec  (  0.0%)
Population analysis         ....       0.003 sec  (  0.0%)
Initial guess               ....       0.008 sec  (  0.0%)
Orbital Transformation      ....       0.000 sec  (  0.0%)
Orbital Orthonormalization  ....       0.000 sec  (  0.0%)
DIIS solution               ....       0.003 sec  (  0.0%)
SOSCF solution              ....       0.005 sec  (  0.0%)
Grid generation             ....       2.142 sec  (  4.5%)

Maximum memory used throughout the entire SCF-calculation: 55.8 MB


-------------------------------------------------------------------------------
                          DFT DISPERSION CORRECTION                            
                                                                               
                              DFTD3 V3.1  Rev 1                                
                          USING Becke-Johnson damping                          
-------------------------------------------------------------------------------
The PBEh-3c composite method is recognized
Using three-body term ABC
Active option DFTDOPT                   ...         4   

molecular C6(AA) [au] = 1797.618730 


            DFT-D V3
 parameters
 s6 scaling factor         :     1.0000 
 a1 scaling factor         :     0.4860 
 s8 scaling factor         :     0.0000 
 a2 scaling factor         :     4.5000 
 Damping factor alpha9(ATM):    16.0000 
 ad hoc parameters k1-k3   :    16.0000     1.3333    -4.0000 

 Edisp/kcal,au: -4.799110040690  -0.007647867844 
 E6   /kcal   :  -4.838068884 
 E8   /kcal   :  -0.000000000 
 E6(ABC)      :   0.038958843 
 % E8         :   0.000000000 
 % E6(ABC)    :  -0.811793078 

-------------------------   ----------------
Dispersion correction           -0.007647868
-------------------------   ----------------

------------------   -----------------
gCP correction             0.019773085
------------------   -----------------

-------------------------   --------------------
FINAL SINGLE POINT ENERGY      -197.337495621007
-------------------------   --------------------

------------------------------------------------------------------------------
                         ORCA SCF GRADIENT CALCULATION
------------------------------------------------------------------------------

 ... reading COSX grid (gridx3)
Gradient of the Kohn-Sham DFT energy:
Kohn-Sham wavefunction type      ... RKS
Hartree-Fock exchange scaling    ...    0.420
Number of operators              ...    1
Number of atoms                  ...   17
Basis set dimensions             ...   99
Integral neglect threshold       ... 2.5e-11
Integral primitive cutoff        ... 2.5e-12
SHARK Integral package           ... ON

Nuc. rep. gradient       (SHARK) ... done (  0.0 sec)
HCore & Overlap gradient (SHARK) ... done (  0.2 sec)
RI-J gradient            (SHARK) ... done (  1.0 sec)
COSX-gradient                    ... done (  9.0 sec)
Exchange-correlation gradient    ... done
Dispersion correction            ... done
gCP correction                   ... done

------------------
CARTESIAN GRADIENT
------------------

   1   C   :   -0.000144353   -0.000034440   -0.000155246
   2   C   :   -0.000946120    0.001694444   -0.000106692
   3   C   :    0.002338684    0.000554114    0.000177924
   4   C   :   -0.000743127   -0.001559465    0.002057893
   5   C   :   -0.000450387   -0.001348727   -0.002142579
   6   H   :   -0.002924370   -0.005121930   -0.011488316
   7   H   :   -0.004506490   -0.006526391    0.010256847
   8   H   :    0.012145449    0.004260681    0.001108102
   9   H   :   -0.000631989   -0.006321542   -0.011394015
  10   H   :   -0.005871123    0.011496868    0.000188771
  11   H   :   -0.002180805   -0.007519979    0.010426700
  12   H   :   -0.002517720   -0.007474986   -0.010424576
  13   H   :    0.012607400    0.002183891    0.002223401
  14   H   :   -0.007631892    0.010514958    0.001099416
  15   H   :   -0.007449658    0.010666166   -0.001006505
  16   H   :    0.012792249    0.002342439   -0.000179017
  17   H   :   -0.003958318   -0.008491037    0.009032355

Difference to translation invariance:
           :   -0.0000725692   -0.0006849359   -0.0003255389

Difference to rotation invariance:
           :    0.0005952509   -0.0020570259    0.0058390160

Norm of the cartesian gradient     ...    0.0452821394
RMS gradient                       ...    0.0063407678
MAX gradient                       ...    0.0127922492

-------
TIMINGS
-------

Total SCF gradient time            ...       14.366 sec

One electron gradient       ....       0.193 sec  (  1.3%)
RI-J Coulomb gradient       ....       1.044 sec  (  7.3%)
COSX gradient               ....       8.986 sec  ( 62.5%)
XC gradient                 ....       3.435 sec  ( 23.9%)

Maximum memory used throughout the entire SCFGRAD-calculation: 43.7 MB
------------------------------------------------------------------------------
                         ORCA GEOMETRY RELAXATION STEP
------------------------------------------------------------------------------

Reading the OPT-File                    .... done
Getting information on internals        .... done
Copying old internal coords+grads       .... done
Making the new internal coordinates     .... (new redundants).... done
Validating the new internal coordinates .... (new redundants).... done
Calculating the B-matrix                .... done
Calculating the G,G- and P matrices     .... done
Transforming gradient to internals      .... done
Projecting the internal gradient        .... done
Number of atoms                         ....  17
Number of internal coordinates          ....  82
Current Energy                          ....  -197.337495621 Eh
Current gradient norm                   ....     0.045282139 Eh/bohr
Maximum allowed component of the step   ....  0.300
Current trust radius                    ....  0.300
Evaluating the initial hessian          ....  (Almloef) done
Projecting the Hessian                  .... done
Forming the augmented Hessian           .... done
Diagonalizing the augmented Hessian     .... done
Last element of RFO vector              ....  0.990440507
Lowest eigenvalues of augmented Hessian:
 -0.006582584  0.010392619  0.010392907  0.010393068  0.010393509
Length of the computed step             ....  0.139271942
The final length of the internal step   ....  0.139271942
Converting the step to cartesian space:
 Initial RMS(Int)=    0.0153800131
Transforming coordinates:
 Iter   0:  RMS(Cart)=    0.0223130284 RMS(Int)=    1.6994570723
 Iter   1:  RMS(Cart)=    0.0001195727 RMS(Int)=    0.0000671337
 Iter   2:  RMS(Cart)=    0.0000028068 RMS(Int)=    0.0000016110
 Iter   3:  RMS(Cart)=    0.0000000628 RMS(Int)=    0.0000000362
done
Storing new coordinates                 .... done

                                .--------------------.
          ----------------------|Geometry convergence|-------------------------
          Item                value                   Tolerance       Converged
          ---------------------------------------------------------------------
          RMS gradient        0.0052252513            0.0001000000      NO
          MAX gradient        0.0129920803            0.0003000000      NO
          RMS step            0.0153800131            0.0020000000      NO
          MAX step            0.0382923283            0.0040000000      NO
          ........................................................
          Max(Bonds)      0.0203      Max(Angles)    0.36
          Max(Dihed)        0.10      Max(Improp)    0.00
          ---------------------------------------------------------------------

The optimization has not yet converged - more geometry cycles are needed


    ---------------------------------------------------------------------------
                         Redundant Internal Coordinates
                            (Angstroem and degrees)

        Definition                    Value    dE/dq     Step     New-Value
    ----------------------------------------------------------------------------
     1. B(C   1,C   0)                1.5401  0.006701 -0.0097    1.5305   
     2. B(C   2,C   0)                1.5401  0.006554 -0.0095    1.5307   
     3. B(C   3,C   0)                1.5401  0.006504 -0.0094    1.5308   
     4. B(C   4,C   0)                1.5401  0.006738 -0.0097    1.5304   
     5. B(H   5,C   1)                1.1115  0.012755 -0.0199    1.0917   
     6. B(H   6,C   1)                1.1115  0.012870 -0.0201    1.0915   
     7. B(H   7,C   1)                1.1115  0.012800 -0.0200    1.0916   
     8. B(H   8,C   2)                1.1115  0.012886 -0.0201    1.0914   
     9. B(H   9,C   2)                1.1115  0.012877 -0.0201    1.0915   
    10. B(H  10,C   2)                1.1115  0.012904 -0.0201    1.0914   
    11. B(H  11,C   3)                1.1115  0.012935 -0.0202    1.0914   
    12. B(H  12,C   3)                1.1115  0.012911 -0.0201    1.0914   
    13. B(H  13,C   3)                1.1115  0.012962 -0.0202    1.0913   
    14. B(H  14,C   4)                1.1115  0.012992 -0.0203    1.0913   
    15. B(H  15,C   4)                1.1115  0.012929 -0.0202    1.0914   
    16. B(H  16,C   4)                1.1115  0.012888 -0.0201    1.0914   
    17. A(C   3,C   0,C   4)          109.47  0.000009   -0.01    109.46   
    18. A(C   1,C   0,C   4)          109.47  0.000067   -0.01    109.46   
    19. A(C   1,C   0,C   2)          109.47 -0.000040    0.02    109.49   
    20. A(C   2,C   0,C   4)          109.47 -0.000018   -0.01    109.46   
    21. A(C   2,C   0,C   3)          109.47  0.000087   -0.03    109.44   
    22. A(C   1,C   0,C   3)          109.47 -0.000103    0.05    109.52   
    23. A(C   0,C   1,H   5)          110.63 -0.001909    0.36    110.99   
    24. A(H   6,C   1,H   7)          108.28  0.001777   -0.34    107.94   
    25. A(H   5,C   1,H   7)          108.28  0.001829   -0.34    107.95   
    26. A(C   0,C   1,H   7)          110.63 -0.001635    0.30    110.94   
    27. A(H   5,C   1,H   6)          108.28  0.001857   -0.34    107.94   
    28. A(C   0,C   1,H   6)          110.63 -0.001699    0.32    110.95   
    29. A(C   0,C   2,H   9)          110.63 -0.001527    0.28    110.92   
    30. A(C   0,C   2,H   8)          110.63 -0.001702    0.32    110.95   
    31. A(H   8,C   2,H   9)          108.28  0.001714   -0.33    107.96   
    32. A(H   9,C   2,H  10)          108.28  0.001733   -0.33    107.96   
    33. A(H   8,C   2,H  10)          108.28  0.001765   -0.32    107.97   
    34. A(C   0,C   2,H  10)          110.63 -0.001772    0.33    110.97   
    35. A(H  12,C   3,H  13)          108.28  0.001633   -0.31    107.97   
    36. A(H  11,C   3,H  13)          108.28  0.001665   -0.32    107.97   
    37. A(C   0,C   3,H  13)          110.63 -0.001408    0.26    110.89   
    38. A(H  11,C   3,H  12)          108.28  0.001742   -0.31    107.97   
    39. A(C   0,C   3,H  12)          110.63 -0.001686    0.32    110.95   
    40. A(C   0,C   3,H  11)          110.63 -0.001743    0.33    110.96   
    41. A(H  15,C   4,H  16)          108.28  0.001744   -0.33    107.96   
    42. A(H  14,C   4,H  16)          108.28  0.001605   -0.30    107.98   
    43. A(C   0,C   4,H  16)          110.63 -0.001654    0.31    110.94   
    44. A(H  14,C   4,H  15)          108.28  0.001592   -0.29    107.99   
    45. A(C   0,C   4,H  15)          110.63 -0.001701    0.32    110.95   
    46. A(C   0,C   4,H  14)          110.63 -0.001387    0.26    110.89   
    47. D(H   6,C   1,C   0,C   4)     60.00  0.000052   -0.10     59.90   
    48. D(H   7,C   1,C   0,C   4)    -60.00  0.000002   -0.07    -60.07   
    49. D(H   7,C   1,C   0,C   3)     60.00 -0.000010   -0.07     59.93   
    50. D(H   6,C   1,C   0,C   2)    -60.00  0.000058   -0.09    -60.09   
    51. D(H   5,C   1,C   0,C   4)    180.00  0.000024   -0.09    179.91   
    52. D(H   6,C   1,C   0,C   3)    180.00  0.000040   -0.09    179.90   
    53. D(H   5,C   1,C   0,C   3)    -60.00  0.000012   -0.08    -60.08   
    54. D(H   5,C   1,C   0,C   2)     60.00  0.000030   -0.07     59.93   
    55. D(H   7,C   1,C   0,C   2)   -180.00  0.000008   -0.06   -180.06   
    56. D(H   9,C   2,C   0,C   3)    -60.00 -0.000045   -0.01    -60.01   
    57. D(H   8,C   2,C   0,C   4)   -180.00  0.000047   -0.07   -180.07   
    58. D(H   8,C   2,C   0,C   3)     60.00 -0.000006   -0.03     59.97   
    59. D(H   8,C   2,C   0,C   1)    -60.00  0.000093   -0.08    -60.08   
    60. D(H   9,C   2,C   0,C   4)     60.00  0.000008   -0.05     59.95   
    61. D(H  10,C   2,C   0,C   4)    -60.00 -0.000010   -0.04    -60.04   
    62. D(H  10,C   2,C   0,C   3)    180.00 -0.000062    0.00    180.00   
    63. D(H  10,C   2,C   0,C   1)     60.00  0.000036   -0.05     59.95   
    64. D(H   9,C   2,C   0,C   1)   -180.00  0.000054   -0.06   -180.06   
    65. D(H  13,C   3,C   0,C   2)     60.00  0.000029   -0.01     59.99   
    66. D(H  13,C   3,C   0,C   1)   -180.00 -0.000031    0.02   -179.98   
    67. D(H  12,C   3,C   0,C   4)     60.00  0.000019    0.02     60.02   
    68. D(H  12,C   3,C   0,C   2)   -180.00  0.000055   -0.03   -180.03   
    69. D(H  12,C   3,C   0,C   1)    -60.00 -0.000005    0.01    -59.99   
    70. D(H  11,C   3,C   0,C   4)   -180.00 -0.000036    0.04   -179.96   
    71. D(H  11,C   3,C   0,C   2)    -60.00 -0.000000    0.00    -60.00   
    72. D(H  13,C   3,C   0,C   4)    -60.00 -0.000007    0.03    -59.97   
    73. D(H  11,C   3,C   0,C   1)     60.00 -0.000060    0.04     60.04   
    74. D(H  15,C   4,C   0,C   1)     60.00 -0.000026    0.04     60.04   
    75. D(H  14,C   4,C   0,C   3)     60.00  0.000033    0.02     60.02   
    76. D(H  14,C   4,C   0,C   2)    -60.00 -0.000067    0.07    -59.93   
    77. D(H  14,C   4,C   0,C   1)    180.00 -0.000047    0.06    180.06   
    78. D(H  16,C   4,C   0,C   3)   -180.00  0.000060    0.00   -180.00   
    79. D(H  16,C   4,C   0,C   2)     60.00 -0.000041    0.05     60.05   
    80. D(H  16,C   4,C   0,C   1)    -60.00 -0.000021    0.04    -59.96   
    81. D(H  15,C   4,C   0,C   3)    -60.00  0.000055    0.00    -60.00   
    82. D(H  15,C   4,C   0,C   2)   -180.00 -0.000045    0.05   -179.95   
    ----------------------------------------------------------------------------

         *************************************************************
         *                GEOMETRY OPTIMIZATION CYCLE   2            *
         *************************************************************
---------------------------------
CARTESIAN COORDINATES (ANGSTROEM)
---------------------------------
  C     -3.219253    1.097273    0.601936
  C     -2.393372   -0.191182    0.590570
  C     -4.705241    0.752615    0.475409
  C     -2.799930    1.983893   -0.573339
  C     -2.979415    1.844972    1.915557
  H     -2.547204   -0.746138   -0.336828
  H     -2.672843   -0.841184    1.421658
  H     -1.327628    0.027832    0.678643
  H     -4.904174    0.218733   -0.455530
  H     -5.316821    1.656607    0.482145
  H     -5.031161    0.119705    1.302683
  H     -2.961716    1.473672   -1.524436
  H     -1.742372    2.245277   -0.507108
  H     -3.375747    2.910856   -0.586390
  H     -3.559113    2.768943    1.948889
  H     -1.925452    2.103950    2.030388
  H     -3.270827    1.233386    2.771293

----------------------------
CARTESIAN COORDINATES (A.U.)
----------------------------
  NO LB      ZA    FRAG     MASS         X           Y           Z
   0 C     6.0000    0    12.011   -6.083507    2.073546    1.137494
   1 C     6.0000    0    12.011   -4.522817   -0.361282    1.116015
   2 C     6.0000    0    12.011   -8.891617    1.422237    0.898392
   3 C     6.0000    0    12.011   -5.291102    3.749014   -1.083453
   4 C     6.0000    0    12.011   -5.630278    3.486491    3.619877
   5 H     1.0000    0     1.008   -4.813518   -1.409996   -0.636513
   6 H     1.0000    0     1.008   -5.050942   -1.589607    2.686544
   7 H     1.0000    0     1.008   -2.508854    0.052595    1.282450
   8 H     1.0000    0     1.008   -9.267545    0.413345   -0.860827
   9 H     1.0000    0     1.008  -10.047336    3.130534    0.911122
  10 H     1.0000    0     1.008   -9.507517    0.226210    2.461714
  11 H     1.0000    0     1.008   -5.596832    2.784837   -2.880767
  12 H     1.0000    0     1.008   -3.292605    4.242958   -0.958295
  13 H     1.0000    0     1.008   -6.379237    5.500720   -1.108116
  14 H     1.0000    0     1.008   -6.725748    5.232544    3.682867
  15 H     1.0000    0     1.008   -3.638578    3.975889    3.836877
  16 H     1.0000    0     1.008   -6.180968    2.330762    5.236985

--------------------------------
INTERNAL COORDINATES (ANGSTROEM)
--------------------------------
 C      0   0   0     0.000000000000     0.00000000     0.00000000
 C      1   0   0     1.530466656823     0.00000000     0.00000000
 C      1   2   0     1.530672386051   109.49337788     0.00000000
 C      1   2   3     1.530750092935   109.51739402   239.99118423
 C      1   2   3     1.530416551229   109.45768294   119.98782643
 H      2   1   3     1.091653117068   110.99229330    59.92617748
 H      2   1   3     1.091473022351   110.94859581   299.91354683
 H      2   1   3     1.091573730510   110.93720773   179.93753776
 H      3   1   2     1.091444384575   110.95232513   299.92003182
 H      3   1   2     1.091456340363   110.91437451   179.93918748
 H      3   1   2     1.091412758890   110.96658259    59.94740037
 H      4   1   2     1.091368710021   110.95940235    60.03940100
 H      4   1   2     1.091393130204   110.95078640   300.01276831
 H      4   1   2     1.091327234143   110.89265991   180.02452661
 H      5   1   2     1.091276048107   110.89316133   180.05572523
 H      5   1   2     1.091371860056   110.95216245    60.04349303
 H      5   1   2     1.091440910172   110.93889387   300.04294713

---------------------------
INTERNAL COORDINATES (A.U.)
---------------------------
 C      0   0   0     0.000000000000     0.00000000     0.00000000
 C      1   0   0     2.892162838493     0.00000000     0.00000000
 C      1   2   0     2.892551610391   109.49337788     0.00000000
 C      1   2   3     2.892698455122   109.51739402   239.99118423
 C      1   2   3     2.892068152644   109.45768294   119.98782643
 H      2   1   3     2.062925424499   110.99229330    59.92617748
 H      2   1   3     2.062585094807   110.94859581   299.91354683
 H      2   1   3     2.062775405647   110.93720773   179.93753776
 H      3   1   2     2.062530977253   110.95232513   299.92003182
 H      3   1   2     2.062553570417   110.91437451   179.93918748
 H      3   1   2     2.062471213369   110.96658259    59.94740037
 H      4   1   2     2.062387973071   110.95940235    60.03940100
 H      4   1   2     2.062434120528   110.95078640   300.01276831
 H      4   1   2     2.062309595021   110.89265991   180.02452661
 H      5   1   2     2.062212867431   110.89316133   180.05572523
 H      5   1   2     2.062393925774   110.95216245    60.04349303
 H      5   1   2     2.062524411583   110.93889387   300.04294713

------------------------------------------------------------------------------
                   ___                                                        
                  /   \      - P O W E R E D   B Y -                         
                 /     \                                                     
                 |  |  |   _    _      __       _____    __    __             
                 |  |  |  | |  | |    /  \     |  _  \  |  |  /  |          
                  \  \/   | |  | |   /    \    | | | |  |  | /  /          
                 / \  \   | |__| |  /  /\  \   | |_| |  |  |/  /          
                |  |  |   |  __  | /  /__\  \  |    /   |      \           
                |  |  |   | |  | | |   __   |  |    \   |  |\   \          
                \     /   | |  | | |  |  |  |  | |\  \  |  | \   \       
                 \___/    |_|  |_| |__|  |__|  |_| \__\ |__|  \__/        
                                                                              
                      - O R C A' S   B I G   F R I E N D -                    
                                      &                                       
                       - I N T E G R A L  F E E D E R -                       
                                                                              
 v1 FN, 2020, v2 2021                                                         
------------------------------------------------------------------------------


Reading SHARK input file OPT_B.SHARKINP.tmp ... ok
----------------------
SHARK INTEGRAL PACKAGE
----------------------

Number of atoms                             ...     17
Number of basis functions                   ...     99
Number of shells                            ...     59
Maximum angular momentum                    ...      2
Integral batch strategy                     ... SHARK/LIBINT Hybrid
RI-J (if used) integral strategy            ... SPLIT-RIJ (Revised 2003 algorithm where possible)
Printlevel                                  ...      1
Contraction scheme used                     ... SEGMENTED contraction
Coulomb Range Separation                    ... NOT USED
Exchange Range Separation                   ... NOT USED
Finite Nucleus Model                        ... NOT USED
Auxiliary Coulomb fitting basis             ... AVAILABLE
   # of basis functions in Aux-J            ...    377
   # of shells in Aux-J                     ...    135
   Maximum angular momentum in Aux-J        ...      4
Auxiliary J/K fitting basis                 ... NOT available
Auxiliary Correlation fitting basis         ... NOT available
Auxiliary 'external' fitting basis          ... NOT available
Integral threshold                          ...     2.500000e-11
Primitive cut-off                           ...     2.500000e-12
Primitive pair pre-selection threshold      ...     2.500000e-12

Calculating pre-screening integrals         ... done (  0.0 sec) Dimension = 59
Organizing shell pair data                  ... done (  0.0 sec)
Shell pair information
Total number of shell pairs                 ...      1770
Shell pairs after pre-screening             ...      1730
Total number of primitive shell pairs       ...      6542
Primitive shell pairs kept                  ...      4824
          la=0 lb=0:    950 shell pairs
          la=1 lb=0:    440 shell pairs
          la=1 lb=1:     55 shell pairs
          la=2 lb=0:    220 shell pairs
          la=2 lb=1:     50 shell pairs
          la=2 lb=2:     15 shell pairs

Calculating one electron integrals          ... done (  0.0 sec)
Calculating RI/J V-Matrix + Cholesky decomp.... done (  0.0 sec)
Calculating Nuclear repulsion               ... done (  0.0 sec) ENN=    198.930332427964 Eh

SHARK setup successfully completed in   0.3 seconds

Maximum memory used throughout the entire GTOINT-calculation: 11.1 MB

Diagonalization of the overlap matrix:
Smallest eigenvalue                        ... 5.947e-03
Time for diagonalization                   ...    0.002 sec
Threshold for overlap eigenvalues          ... 1.000e-08
Number of eigenvalues below threshold      ... 0
Time for construction of square roots      ...    0.000 sec
Total time needed                          ...    0.003 sec

-------------------
DFT GRID GENERATION
-------------------

General Integration Accuracy     IntAcc      ... 4.159
Radial Grid Type                 RadialGrid  ... OptM3 with GC (2021)
Angular Grid (max. ang.)         AngularGrid ... 3 (Lebedev-194)
Angular grid pruning method      GridPruning ... 4 (adaptive)
Weight generation scheme         WeightScheme... Becke
Basis function cutoff            BFCut       ... 1.0000e-11
Integration weight cutoff        WCut        ... 1.0000e-14
Angular grids for H and He will be reduced by one unit
Partially contracted basis set               ... off
Rotationally invariant grid construction     ... off

Total number of grid points                  ...    33060
Total number of batches                      ...      529
Average number of points per batch           ...       62
Average number of grid points per atom       ...     1945
Time for grid setup =    0.676 sec

--------------------
COSX GRID GENERATION
--------------------

GRIDX 1
-------
General Integration Accuracy     IntAcc      ... 3.816
Radial Grid Type                 RadialGrid  ... OptM3 with GC (2021)
Angular Grid (max. ang.)         AngularGrid ... 1 (Lebedev-50)
Angular grid pruning method      GridPruning ... 4 (adaptive)
Weight generation scheme         WeightScheme... Becke
Basis function cutoff            BFCut       ... 1.0000e-11
Integration weight cutoff        WCut        ... 1.0000e-14
Angular grids for H and He will be reduced by one unit
Partially contracted basis set               ... on
Rotationally invariant grid construction     ... off

Total number of grid points                  ...     8829
Total number of batches                      ...      150
Average number of points per batch           ...       58
[...]
               *****************************************************

Old exchange energy                            =    -12.682683733 Eh
New exchange energy                            =    -12.682664638 Eh
Exchange energy change after final integration =      0.000019095 Eh
Total energy after final integration           =   -197.353268552 Eh
Final COS-X integration done in                =     5.097 sec

----------------
TOTAL SCF ENERGY
----------------

Total Energy       :         -197.35326855 Eh           -5370.25546 eV

Components:
Nuclear Repulsion  :          198.98520870 Eh            5414.66280 eV
Electronic Energy  :         -396.33847725 Eh          -10784.91826 eV
One Electron Energy:         -658.24342805 Eh          -17911.71429 eV
Two Electron Energy:          261.90495080 Eh            7126.79603 eV
Max COSX asymmetry :            0.00000540 Eh               0.00015 eV

Virial components:
Potential Energy   :         -393.00146988 Eh          -10694.11367 eV
Kinetic Energy     :          195.64820132 Eh            5323.85822 eV
Virial Ratio       :            2.00871497


DFT components:
N(Alpha)           :       21.000051268067 electrons
N(Beta)            :       21.000051268067 electrons
N(Total)           :       42.000102536134 electrons
E(X)               :      -16.790109049370 Eh       
E(C)               :       -1.765190568269 Eh       
E(XC)              :      -18.555299617639 Eh       
DFET-embed. en.    :        0.000000000000 Eh       

---------------
SCF CONVERGENCE
---------------

  Last Energy change         ...   -2.1505e-09  Tolerance :   1.0000e-08
  Last MAX-Density change    ...    1.4433e-15  Tolerance :   1.0000e-07
  Last RMS-Density change    ...    4.2243e-17  Tolerance :   5.0000e-09
  Last Orbital Gradient      ...    1.5598e-06  Tolerance :   1.0000e-05
  Last Orbital Rotation      ...    1.1819e-06  Tolerance :   1.0000e-05

             **** THE GBW FILE WAS UPDATED (OPT_B.gbw) ****
             **** DENSITY OPT_B.scfp WAS UPDATED ****
             **** ENERGY FILE WAS UPDATED (OPT_B.en.tmp) ****
             **** THE GBW FILE WAS UPDATED (OPT_B.gbw) ****
             **** DENSITY OPT_B.scfp WAS UPDATED ****
----------------
ORBITAL ENERGIES
----------------

  NO   OCC          E(Eh)            E(eV) 
   0   2.0000     -10.447622      -284.2942 
   1   2.0000     -10.417763      -283.4817 
   2   2.0000     -10.417739      -283.4811 
   3   2.0000     -10.417715      -283.4804 
   4   2.0000     -10.417620      -283.4778 
   5   2.0000      -0.912619       -24.8336 
   6   2.0000      -0.761794       -20.7295 
   7   2.0000      -0.761641       -20.7253 
   8   2.0000      -0.761631       -20.7250 
   9   2.0000      -0.598147       -16.2764 
  10   2.0000      -0.504414       -13.7258 
  11   2.0000      -0.504171       -13.7192 
  12   2.0000      -0.504066       -13.7163 
  13   2.0000      -0.451230       -12.2786 
  14   2.0000      -0.451059       -12.2739 
  15   2.0000      -0.410417       -11.1680 
  16   2.0000      -0.410372       -11.1668 
  17   2.0000      -0.410332       -11.1657 
  18   2.0000      -0.365592        -9.9483 
  19   2.0000      -0.365393        -9.9429 
  20   2.0000      -0.365336        -9.9413 
  21   0.0000       0.118874         3.2347 
  22   0.0000       0.186841         5.0842 
  23   0.0000       0.186974         5.0878 
  24   0.0000       0.187116         5.0917 
  25   0.0000       0.217465         5.9175 
  26   0.0000       0.217537         5.9195 
  27   0.0000       0.225225         6.1287 
  28   0.0000       0.225478         6.1356 
  29   0.0000       0.225534         6.1371 
  30   0.0000       0.235382         6.4051 
  31   0.0000       0.258845         7.0435 
  32   0.0000       0.258874         7.0443 
  33   0.0000       0.259010         7.0480 
  34   0.0000       0.285033         7.7561 
  35   0.0000       0.285048         7.7566 
  36   0.0000       0.285179         7.7601 
  37   0.0000       0.522488        14.2176 
  38   0.0000       0.522580        14.2201 
  39   0.0000       0.534434        14.5427 
  40   0.0000       0.534543        14.5457 
  41   0.0000       0.534713        14.5503 
  42   0.0000       0.589908        16.0522 
  43   0.0000       0.590326        16.0636 
  44   0.0000       0.590371        16.0648 
  45   0.0000       0.660398        17.9704 
  46   0.0000       0.758941        20.6518 
  47   0.0000       0.759036        20.6544 
  48   0.0000       0.759446        20.6656 
  49   0.0000       0.801350        21.8058 
  50   0.0000       0.802153        21.8277 
  51   0.0000       0.802626        21.8406 
  52   0.0000       0.955578        26.0026 
  53   0.0000       1.028173        27.9780 
  54   0.0000       1.028207        27.9789 
  55   0.0000       1.028281        27.9809 
  56   0.0000       1.031898        28.0794 
  57   0.0000       1.046466        28.4758 
  58   0.0000       1.046595        28.4793 
  59   0.0000       1.046726        28.4829 
  60   0.0000       1.089492        29.6466 
  61   0.0000       1.089659        29.6511 
  62   0.0000       1.104165        30.0458 
  63   0.0000       1.104335        30.0505 
  64   0.0000       1.104341        30.0506 
  65   0.0000       1.462110        39.7860 
  66   0.0000       1.462239        39.7895 
  67   0.0000       1.470807        40.0227 
  68   0.0000       1.471889        40.0521 
  69   0.0000       1.472192        40.0604 
  70   0.0000       1.520457        41.3737 
  71   0.0000       1.805900        49.1410 
  72   0.0000       1.806017        49.1442 
  73   0.0000       1.806079        49.1459 
  74   0.0000       1.916266        52.1442 
  75   0.0000       1.916611        52.1536 
  76   0.0000       1.916774        52.1581 
  77   0.0000       2.138764        58.1987 
  78   0.0000       2.139066        58.2070 
  79   0.0000       2.139419        58.2166 
  80   0.0000       2.146153        58.3998 
  81   0.0000       2.146584        58.4115 
  82   0.0000       2.307475        62.7896 
  83   0.0000       2.331177        63.4345 
  84   0.0000       2.331339        63.4389 
  85   0.0000       2.331499        63.4433 
  86   0.0000       2.342072        63.7310 
  87   0.0000       2.342116        63.7322 
  88   0.0000       2.342158        63.7334 
  89   0.0000       2.691143        73.2297 
  90   0.0000       2.691593        73.2420 
  91   0.0000       2.759150        75.0803 
  92   0.0000       2.759430        75.0879 
  93   0.0000       2.759675        75.0946 
  94   0.0000      13.540501       368.4558 
  95   0.0000      13.891198       377.9987 
  96   0.0000      13.891363       378.0032 
  97   0.0000      13.891593       378.0095 
  98   0.0000      14.154447       385.1621 

                    ********************************
                    * MULLIKEN POPULATION ANALYSIS *
                    ********************************

-----------------------
MULLIKEN ATOMIC CHARGES
-----------------------
   0 C :   -0.106985
   1 C :   -0.608124
   2 C :   -0.607917
   3 C :   -0.607425
   4 C :   -0.607357
   5 H :    0.211578
   6 H :    0.211514
   7 H :    0.211462
   8 H :    0.211551
   9 H :    0.211480
  10 H :    0.211546
  11 H :    0.211509
  12 H :    0.211437
  13 H :    0.211396
  14 H :    0.211394
  15 H :    0.211511
  16 H :    0.211429
Sum of atomic charges:   -0.0000000

--------------------------------
MULLIKEN REDUCED ORBITAL CHARGES
--------------------------------
  0 C s       :     3.234964  s :     3.234964
      pz      :     0.938467  p :     2.816806
      px      :     0.939076
      py      :     0.939262
      dz2     :     0.012280  d :     0.055216
      dxz     :     0.007423
      dyz     :     0.013001
      dx2y2   :     0.011127
      dxy     :     0.011385
  1 C s       :     3.371995  s :     3.371995
      pz      :     1.122944  p :     3.199036
      px      :     1.073227
      py      :     1.002865
      dz2     :     0.007290  d :     0.037093
      dxz     :     0.001638
      dyz     :     0.012807
      dx2y2   :     0.009857
      dxy     :     0.005501
  2 C s       :     3.371940  s :     3.371940
      pz      :     1.121812  p :     3.198899
      px      :     0.963246
      py      :     1.113842
      dz2     :     0.007463  d :     0.037077
      dxz     :     0.004718
      dyz     :     0.009512
      dx2y2   :     0.005274
      dxy     :     0.010110
  3 C s       :     3.371839  s :     3.371839
      pz      :     1.023044  p :     3.198511
      px      :     1.109819
      py      :     1.065648
      dz2     :     0.011213  d :     0.037075
      dxz     :     0.002200
      dyz     :     0.007999
      dx2y2   :     0.007718
      dxy     :     0.007944
  4 C s       :     3.371781  s :     3.371781
      pz      :     0.997928  p :     3.198488
      px      :     1.118445
      py      :     1.082115
      dz2     :     0.009786  d :     0.037088
      dxz     :     0.003430
      dyz     :     0.008922
      dx2y2   :     0.007134
      dxy     :     0.007817
  5 H s       :     0.788422  s :     0.788422
  6 H s       :     0.788486  s :     0.788486
  7 H s       :     0.788538  s :     0.788538
  8 H s       :     0.788449  s :     0.788449
  9 H s       :     0.788520  s :     0.788520
 10 H s       :     0.788454  s :     0.788454
 11 H s       :     0.788491  s :     0.788491
 12 H s       :     0.788563  s :     0.788563
 13 H s       :     0.788604  s :     0.788604
 14 H s       :     0.788606  s :     0.788606
 15 H s       :     0.788489  s :     0.788489
 16 H s       :     0.788571  s :     0.788571


                     *******************************
                     * LOEWDIN POPULATION ANALYSIS *
                     *******************************

----------------------
LOEWDIN ATOMIC CHARGES
----------------------
   0 C :   -0.114451
   1 C :   -0.343864
   2 C :   -0.343857
   3 C :   -0.343726
   4 C :   -0.343674
   5 H :    0.124130
   6 H :    0.124136
   7 H :    0.124121
   8 H :    0.124136
   9 H :    0.124126
  10 H :    0.124137
  11 H :    0.124135
  12 H :    0.124111
  13 H :    0.124160
  14 H :    0.124123
  15 H :    0.124153
  16 H :    0.124104

-------------------------------
LOEWDIN REDUCED ORBITAL CHARGES
-------------------------------
  0 C s       :     2.840745  s :     2.840745
      pz      :     1.048651  p :     3.146205
      px      :     1.048715
      py      :     1.048839
      dz2     :     0.028797  d :     0.127501
      dxz     :     0.015851
      dyz     :     0.030725
      dx2y2   :     0.025724
      dxy     :     0.026404
  1 C s       :     2.954326  s :     2.954326
      pz      :     1.126870  p :     3.320018
      px      :     1.109162
      py      :     1.083986
      dz2     :     0.012987  d :     0.069521
      dxz     :     0.002807
      dyz     :     0.022879
      dx2y2   :     0.018736
      dxy     :     0.012112
  2 C s       :     2.954421  s :     2.954421
      pz      :     1.126438  p :     3.319964
      px      :     1.069805
      py      :     1.123720
      dz2     :     0.013279  d :     0.069472
      dxz     :     0.009638
      dyz     :     0.015725
      dx2y2   :     0.011661
      dxy     :     0.019169
  3 C s       :     2.954390  s :     2.954390
      pz      :     1.091198  p :     3.319871
      px      :     1.122222
      py      :     1.106452
      dz2     :     0.020898  d :     0.069465
      dxz     :     0.004858
      dyz     :     0.016154
      dx2y2   :     0.013567
      dxy     :     0.013990
  4 C s       :     2.954338  s :     2.954338
      pz      :     1.082227  p :     3.319833
      px      :     1.125292
      py      :     1.112314
      dz2     :     0.019176  d :     0.069504
      dxz     :     0.007057
      dyz     :     0.017740
      dx2y2   :     0.012197
      dxy     :     0.013334
  5 H s       :     0.875870  s :     0.875870
  6 H s       :     0.875864  s :     0.875864
  7 H s       :     0.875879  s :     0.875879
  8 H s       :     0.875864  s :     0.875864
  9 H s       :     0.875874  s :     0.875874
 10 H s       :     0.875863  s :     0.875863
 11 H s       :     0.875865  s :     0.875865
 12 H s       :     0.875889  s :     0.875889
 13 H s       :     0.875840  s :     0.875840
 14 H s       :     0.875877  s :     0.875877
 15 H s       :     0.875847  s :     0.875847
 16 H s       :     0.875896  s :     0.875896


                      *****************************
                      * MAYER POPULATION ANALYSIS *
                      *****************************

  NA   - Mulliken gross atomic population
  ZA   - Total nuclear charge
  QA   - Mulliken gross atomic charge
  VA   - Mayer's total valence
  BVA  - Mayer's bonded valence
  FA   - Mayer's free valence

  ATOM       NA         ZA         QA         VA         BVA        FA
  0 C      6.1070     6.0000    -0.1070     3.8465     3.8465     0.0000
  1 C      6.6081     6.0000    -0.6081     3.6856     3.6856     0.0000
  2 C      6.6079     6.0000    -0.6079     3.6856     3.6856     0.0000
  3 C      6.6074     6.0000    -0.6074     3.6858     3.6858    -0.0000
  4 C      6.6074     6.0000    -0.6074     3.6857     3.6857    -0.0000
  5 H      0.7884     1.0000     0.2116     0.9184     0.9184    -0.0000
  6 H      0.7885     1.0000     0.2115     0.9184     0.9184     0.0000
  7 H      0.7885     1.0000     0.2115     0.9184     0.9184    -0.0000
  8 H      0.7884     1.0000     0.2116     0.9185     0.9185     0.0000
  9 H      0.7885     1.0000     0.2115     0.9184     0.9184    -0.0000
 10 H      0.7885     1.0000     0.2115     0.9184     0.9184    -0.0000
 11 H      0.7885     1.0000     0.2115     0.9185     0.9185    -0.0000
 12 H      0.7886     1.0000     0.2114     0.9185     0.9185    -0.0000
 13 H      0.7886     1.0000     0.2114     0.9185     0.9185    -0.0000
 14 H      0.7886     1.0000     0.2114     0.9185     0.9185    -0.0000
 15 H      0.7885     1.0000     0.2115     0.9185     0.9185    -0.0000
 16 H      0.7886     1.0000     0.2114     0.9185     0.9185    -0.0000

  Mayer bond orders larger than 0.100000
B(  0-C ,  1-C ) :   0.9814 B(  0-C ,  2-C ) :   0.9815 B(  0-C ,  3-C ) :   0.9816 
B(  0-C ,  4-C ) :   0.9816 B(  1-C ,  5-H ) :   0.9305 B(  1-C ,  6-H ) :   0.9304 
B(  1-C ,  7-H ) :   0.9303 B(  2-C ,  8-H ) :   0.9304 B(  2-C ,  9-H ) :   0.9303 
B(  2-C , 10-H ) :   0.9304 B(  3-C , 11-H ) :   0.9304 B(  3-C , 12-H ) :   0.9304 
B(  3-C , 13-H ) :   0.9303 B(  4-C , 14-H ) :   0.9303 B(  4-C , 15-H ) :   0.9304 
B(  4-C , 16-H ) :   0.9303 

-------
TIMINGS
-------

Total SCF time: 0 days 0 hours 0 min 20 sec 

Total time                  ....      20.035 sec
Sum of individual times     ....      19.841 sec  ( 99.0%)

Fock matrix formation       ....      17.926 sec  ( 89.5%)
  Split-RI-J                ....       1.261 sec  (  7.0% of F)
  Chain of spheres X        ....      14.862 sec  ( 82.9% of F)
  XC integration            ....       1.821 sec  ( 10.2% of F)
    Basis function eval.    ....       0.773 sec  ( 42.4% of XC)
    Density eval.           ....       0.479 sec  ( 26.3% of XC)
    XC-Functional eval.     ....       0.236 sec  ( 12.9% of XC)
    XC-Potential eval.      ....       0.248 sec  ( 13.6% of XC)
Diagonalization             ....       0.003 sec  (  0.0%)
Density matrix formation    ....       0.001 sec  (  0.0%)
Population analysis         ....       0.003 sec  (  0.0%)
Initial guess               ....       0.010 sec  (  0.0%)
Orbital Transformation      ....       0.000 sec  (  0.0%)
Orbital Orthonormalization  ....       0.008 sec  (  0.0%)
DIIS solution               ....       0.000 sec  (  0.0%)
SOSCF solution              ....       0.005 sec  (  0.0%)
Grid generation             ....       1.894 sec  (  9.5%)

Maximum memory used throughout the entire SCF-calculation: 55.9 MB


-------------------------------------------------------------------------------
                          DFT DISPERSION CORRECTION                            
                                                                               
                              DFTD3 V3.1  Rev 1                                
                          USING Becke-Johnson damping                          
-------------------------------------------------------------------------------
The PBEh-3c composite method is recognized
Using three-body term ABC
Active option DFTDOPT                   ...         4   

molecular C6(AA) [au] = 1796.619898 


            DFT-D V3
 parameters
 s6 scaling factor         :     1.0000 
 a1 scaling factor         :     0.4860 
 s8 scaling factor         :     0.0000 
 a2 scaling factor         :     4.5000 
 Damping factor alpha9(ATM):    16.0000 
 ad hoc parameters k1-k3   :    16.0000     1.3333    -4.0000 

 Edisp/kcal,au: -4.831675970713  -0.007699764952 
 E6   /kcal   :  -4.870021448 
 E8   /kcal   :  -0.000000000 
 E6(ABC)      :   0.038345478 
 % E8         :   0.000000000 
 % E6(ABC)    :  -0.793626845 

-------------------------   ----------------
Dispersion correction           -0.007699765
-------------------------   ----------------

------------------   -----------------
gCP correction             0.020025013
------------------   -----------------

-------------------------   --------------------
FINAL SINGLE POINT ENERGY      -197.340943304283
-------------------------   --------------------

                                *** OPTIMIZATION RUN DONE ***

                            ***************************************
                            *     ORCA property calculations      *
                            ***************************************

                                    ---------------------
                                    Active property flags
                                    ---------------------
   (+) Dipole Moment


------------------------------------------------------------------------------
                       ORCA ELECTRIC PROPERTIES CALCULATION
------------------------------------------------------------------------------

Dipole Moment Calculation                       ... on
Quadrupole Moment Calculation                   ... off
Polarizability Calculation                      ... off
GBWName                                         ... OPT_B.gbw
Electron density                                ... OPT_B.scfp
The origin for moment calculation is the CENTER OF MASS  = (-6.083866,  2.073857  1.137552)

-------------
DIPOLE MOMENT
-------------
                                X             Y             Z
Electronic contribution:      0.00194      -0.00313      -0.00218
Nuclear contribution   :     -0.00178       0.00283       0.00216
                        -----------------------------------------
Total Dipole Moment    :      0.00017      -0.00030      -0.00002
                        -----------------------------------------
Magnitude (a.u.)       :      0.00035
Magnitude (Debye)      :      0.00088



--------------------
Rotational spectrum 
--------------------
 
Rotational constants in cm-1:     0.149186     0.149078     0.149039 
Rotational constants in MHz :  4472.480842  4469.239566  4468.087434 

 Dipole components along the rotational axes: 
x,y,z [a.u.] :     0.000281    -0.000040     0.000198 
x,y,z [Debye]:     0.000715    -0.000102     0.000502 

 

Timings for individual modules:

Sum of individual times         ...      220.338 sec (=   3.672 min)
GTO integral calculation        ...        1.627 sec (=   0.027 min)   0.7 %
SCF iterations                  ...      165.926 sec (=   2.765 min)  75.3 %
SCF Gradient evaluation         ...       52.395 sec (=   0.873 min)  23.8 %
Geometry relaxation             ...        0.389 sec (=   0.006 min)   0.2 %
                             ****ORCA TERMINATED NORMALLY****
TOTAL RUN TIME: 0 days 0 hours 3 minutes 41 seconds 368 msec
