
                                 *****************
                                 * O   R   C   A *
                                 *****************

                                            #,                                       
                                            ###                                      
                                            ####                                     
                                            #####                                    
                                            ######                                   
                                           ########,                                 
                                     ,,################,,,,,                         
                               ,,#################################,,                 
                          ,,##########################################,,             
                       ,#########################################, ''#####,          
                    ,#############################################,,   '####,        
                  ,##################################################,,,,####,       
                ,###########''''           ''''###############################       
              ,#####''   ,,,,##########,,,,          '''####'''          '####       
            ,##' ,,,,###########################,,,                        '##       
           ' ,,###''''                  '''############,,,                           
         ,,##''                                '''############,,,,        ,,,,,,###''
      ,#''                                            '''#######################'''  
     '                                                          ''''####''''         
             ,#######,   #######,   ,#######,      ##                                
            ,#'     '#,  ##    ##  ,#'     '#,    #''#        ######   ,####,        
            ##       ##  ##   ,#'  ##            #'  '#       #        #'  '#        
            ##       ##  #######   ##           ,######,      #####,   #    #        
            '#,     ,#'  ##    ##  '#,     ,#' ,#      #,         ##   #,  ,#        
             '#######'   ##     ##  '#######'  #'      '#     #####' # '####'        



                  #######################################################
                  #                        -***-                        #
                  #          Department of theory and spectroscopy      #
                  #    Directorship and core code : Frank Neese         #
                  #        Max Planck Institute fuer Kohlenforschung    #
                  #                Kaiser Wilhelm Platz 1               #
                  #                 D-45470 Muelheim/Ruhr               #
                  #                      Germany                        #
                  #                                                     #
                  #                  All rights reserved                #
                  #                        -***-                        #
                  #######################################################


                         Program Version 5.0.2 -  RELEASE  -


 With contributions from (in alphabetic order):
   Daniel Aravena         : Magnetic Suceptibility
   Michael Atanasov       : Ab Initio Ligand Field Theory (pilot matlab implementation)
   Alexander A. Auer      : GIAO ZORA, VPT2 properties, NMR spectrum
   Ute Becker             : Parallelization
   Giovanni Bistoni       : ED, misc. LED, open-shell LED, HFLD
   Martin Brehm           : Molecular dynamics
   Dmytro Bykov           : SCF Hessian
   Vijay G. Chilkuri      : MRCI spin determinant printing, contributions to CSF-ICE
   Dipayan Datta          : RHF DLPNO-CCSD density
   Achintya Kumar Dutta   : EOM-CC, STEOM-CC
   Dmitry Ganyushin       : Spin-Orbit,Spin-Spin,Magnetic field MRCI
   Miquel Garcia          : C-PCM and meta-GGA Hessian, CC/C-PCM, Gaussian charge scheme
   Yang Guo               : DLPNO-NEVPT2, F12-NEVPT2, CIM, IAO-localization
   Andreas Hansen         : Spin unrestricted coupled pair/coupled cluster methods
   Benjamin Helmich-Paris : MC-RPA, TRAH-SCF, COSX integrals
   Lee Huntington         : MR-EOM, pCC
   Robert Izsak           : Overlap fitted RIJCOSX, COSX-SCS-MP3, EOM
   Marcus Kettner         : VPT2
   Christian Kollmar      : KDIIS, OOCD, Brueckner-CCSD(T), CCSD density, CASPT2, CASPT2-K
   Simone Kossmann        : Meta GGA functionals, TD-DFT gradient, OOMP2, MP2 Hessian
   Martin Krupicka        : Initial AUTO-CI
   Lucas Lang             : DCDCAS
   Marvin Lechner         : AUTO-CI (C++ implementation), FIC-MRCC
   Dagmar Lenk            : GEPOL surface, SMD
   Dimitrios Liakos       : Extrapolation schemes; Compound Job, initial MDCI parallelization
   Dimitrios Manganas     : Further ROCIS development; embedding schemes
   Dimitrios Pantazis     : SARC Basis sets
   Anastasios Papadopoulos: AUTO-CI, single reference methods and gradients
   Taras Petrenko         : DFT Hessian,TD-DFT gradient, ASA, ECA, R-Raman, ABS, FL, XAS/XES, NRVS
   Peter Pinski           : DLPNO-MP2, DLPNO-MP2 Gradient
   Christoph Reimann      : Effective Core Potentials
   Marius Retegan         : Local ZFS, SOC
   Christoph Riplinger    : Optimizer, TS searches, QM/MM, DLPNO-CCSD(T), (RO)-DLPNO pert. Triples
   Tobias Risthaus        : Range-separated hybrids, TD-DFT gradient, RPA, STAB
   Michael Roemelt        : Original ROCIS implementation
   Masaaki Saitow         : Open-shell DLPNO-CCSD energy and density
   Barbara Sandhoefer     : DKH picture change effects
   Avijit Sen             : IP-ROCIS
   Kantharuban Sivalingam : CASSCF convergence, NEVPT2, FIC-MRCI
   Bernardo de Souza      : ESD, SOC TD-DFT
   Georgi Stoychev        : AutoAux, RI-MP2 NMR, DLPNO-MP2 response
   Willem Van den Heuvel  : Paramagnetic NMR
   Boris Wezisla          : Elementary symmetry handling
   Frank Wennmohs         : Technical directorship


 We gratefully acknowledge several colleagues who have allowed us to
 interface, adapt or use parts of their codes:
   Stefan Grimme, W. Hujo, H. Kruse, P. Pracht,  : VdW corrections, initial TS optimization,
                  C. Bannwarth, S. Ehlert          DFT functionals, gCP, sTDA/sTD-DF
   Ed Valeev, F. Pavosevic, A. Kumar             : LibInt (2-el integral package), F12 methods
   Garnet Chan, S. Sharma, J. Yang, R. Olivares  : DMRG
   Ulf Ekstrom                                   : XCFun DFT Library
   Mihaly Kallay                                 : mrcc  (arbitrary order and MRCC methods)
   Jiri Pittner, Ondrej Demel                    : Mk-CCSD
   Frank Weinhold                                : gennbo (NPA and NBO analysis)
   Christopher J. Cramer and Donald G. Truhlar   : smd solvation model
   Lars Goerigk                                  : TD-DFT with DH, B97 family of functionals
   V. Asgeirsson, H. Jonsson                     : NEB implementation
   FAccTs GmbH                                   : IRC, NEB, NEB-TS, DLPNO-Multilevel, CI-OPT
                                                   MM, QMMM, 2- and 3-layer-ONIOM, Crystal-QMMM,
                                                   LR-CPCM, SF, NACMEs, symmetry and pop. for TD-DFT,
                                                   nearIR, NL-DFT gradient (VV10), updates on ESD,
                                                   ML-optimized integration grids
   S Lehtola, MJT Oliveira, MAL Marques          : LibXC Library
   Liviu Ungur et al                             : ANISO software


 Your calculation uses the libint2 library for the computation of 2-el integrals
 For citations please refer to: http://libint.valeyev.net

 Your ORCA version has been built with support for libXC version: 5.1.0
 For citations please refer to: https://tddft.org/programs/libxc/

 This ORCA versions uses:
   CBLAS   interface :  Fast vector & matrix operations
   LAPACKE interface :  Fast linear algebra routines
   SCALAPACK package :  Parallel linear algebra routines
   Shared memory     :  Shared parallel matrices
   BLAS/LAPACK       :  OpenBLAS 0.3.15  USE64BITINT DYNAMIC_ARCH NO_AFFINITY Haswell SINGLE_THREADED
        Core in use  :  Haswell
   Copyright (c) 2011-2014, The OpenBLAS Project




***************************************
The coordinates will be read from file: OPT_F.xyz
***************************************



Information: The global flag for chemical shieldings has been found
             ==>> will calculate the chemical shieldings for all atoms in the system

================================================================================

----- Orbital basis set information -----
Your calculation utilizes the basis: pcSseg-2
   F. Jensen, J. Chem. Theory Comput. 11, 132 (2015).

----- AuxJ basis set information -----
Your calculation utilizes the auxiliary basis: def2/J
   F. Weigend, Phys. Chem. Chem. Phys. 8, 1057 (2006).

================================================================================
                                        WARNINGS
                       Please study these warnings very carefully!
================================================================================


INFO   : the flag for use of the SHARK integral package has been found!

================================================================================
                                       INPUT FILE
================================================================================
NAME = F.inp
|  1> !PBE RI pcSseg-2 def2/J NMR
|  2> 
|  3> *xyzfile 0 1 OPT_F.xyz
|  4> 
|  5> 
|  6>                          ****END OF INPUT****
================================================================================

                       ****************************
                       * Single Point Calculation *
                       ****************************

---------------------------------
CARTESIAN COORDINATES (ANGSTROEM)
---------------------------------
  C     -6.914805   -1.090402   -5.449257
  C     -5.736593   -1.008206   -4.483126
  C     -5.157671    0.381097   -4.669820
  C     -6.968635    0.261579   -6.135080
  N     -5.926176    1.009858   -5.627751
  O     -4.217364    0.867628   -4.108309
  O     -7.752243    0.636045   -6.960849
  H     -7.868247   -1.275344   -4.954060
  H     -6.799034   -1.867347   -6.205354
  H     -4.960348   -1.746987   -4.683805
  H     -6.025622   -1.134660   -3.439455
  H     -5.744772    1.956448   -5.928643

----------------------------
CARTESIAN COORDINATES (A.U.)
----------------------------
  NO LB      ZA    FRAG     MASS         X           Y           Z
   0 C     6.0000    0    12.011  -13.067087   -2.060561  -10.297604
   1 C     6.0000    0    12.011  -10.840591   -1.905233   -8.471880
   2 C     6.0000    0    12.011   -9.746585    0.720168   -8.824682
   3 C     6.0000    0    12.011  -13.168811    0.494313  -11.593621
   4 N     7.0000    0    14.007  -11.198849    1.908356  -10.634908
   5 O     8.0000    0    15.999   -7.969663    1.639578   -7.763579
   6 O     8.0000    0    15.999  -14.649616    1.201951  -13.154099
   7 H     1.0000    0     1.008  -14.868832   -2.410050   -9.361816
   8 H     1.0000    0     1.008  -12.848313   -3.528774  -11.726420
   9 H     1.0000    0     1.008   -9.373699   -3.301327   -8.851109
  10 H     1.0000    0     1.008  -11.386776   -2.144196   -6.499629
  11 H     1.0000    0     1.008  -10.856047    3.697151  -11.203511

--------------------------------
INTERNAL COORDINATES (ANGSTROEM)
--------------------------------
 C      0   0   0     0.000000000000     0.00000000     0.00000000
 C      1   0   0     1.525892518352     0.00000000     0.00000000
 C      2   1   0     1.516630646339   105.43499956     0.00000000
 C      1   2   3     1.516938708990   105.40542840   359.35596510
 N      3   2   1     1.379699976846   106.87661737     0.21114870
 O      3   2   1     1.198409100793   127.85935667   180.13564744
 O      4   1   2     1.198399789688   127.82314545   180.86222787
 H      1   2   3     1.090172556092   113.38054430   240.21278222
 H      1   2   3     1.090288066414   113.29601893   118.43915006
 H      2   1   3     1.090241390945   113.37308219   240.78428995
 H      2   1   3     1.090310230222   113.27467223   119.08395410
 H      5   3   2     1.009690653190   122.28119262   179.66982760

---------------------------
INTERNAL COORDINATES (A.U.)
---------------------------
 C      0   0   0     0.000000000000     0.00000000     0.00000000
 C      1   0   0     2.883518969485     0.00000000     0.00000000
 C      2   1   0     2.866016567892   105.43499956     0.00000000
 C      1   2   3     2.866598721935   105.40542840   359.35596510
 N      3   2   1     2.607255103217   106.87661737     0.21114870
 O      3   2   1     2.264664996897   127.85935667   180.13564744
 O      4   1   2     2.264647401458   127.82314545   180.86222787
 H      1   2   3     2.060127569731   113.38054430   240.21278222
 H      1   2   3     2.060345852605   113.29601893   118.43915006
 H      2   1   3     2.060257648751   113.37308219   240.78428995
 H      2   1   3     2.060387736132   113.27467223   119.08395410
 H      5   3   2     1.908038814509   122.28119262   179.66982760

---------------------
BASIS SET INFORMATION
---------------------
There are 4 groups of distinct atoms

 Group   1 Type C   : 11s7p2d1f contracted to 4s5p2d1f pattern {7211/31111/11/1}
 Group   2 Type N   : 11s7p2d1f contracted to 4s5p2d1f pattern {7211/31111/11/1}
 Group   3 Type O   : 11s7p2d1f contracted to 4s5p2d1f pattern {7211/31111/11/1}
 Group   4 Type H   : 6s3p1d contracted to 3s2p1d pattern {411/21/1}

Atom   0C    basis set group =>   1
Atom   1C    basis set group =>   1
Atom   2C    basis set group =>   1
Atom   3C    basis set group =>   1
Atom   4N    basis set group =>   2
Atom   5O    basis set group =>   3
Atom   6O    basis set group =>   3
Atom   7H    basis set group =>   4
Atom   8H    basis set group =>   4
Atom   9H    basis set group =>   4
Atom  10H    basis set group =>   4
Atom  11H    basis set group =>   4
---------------------------------
AUXILIARY/J BASIS SET INFORMATION
---------------------------------
There are 4 groups of distinct atoms

 Group   1 Type C   : 12s5p4d2f1g contracted to 6s4p3d1f1g pattern {711111/2111/211/2/1}
 Group   2 Type N   : 12s5p4d2f1g contracted to 6s4p3d1f1g pattern {711111/2111/211/2/1}
 Group   3 Type O   : 12s5p4d2f1g contracted to 6s4p3d1f1g pattern {711111/2111/211/2/1}
 Group   4 Type H   : 5s2p1d contracted to 3s1p1d pattern {311/2/1}

Atom   0C    basis set group =>   1
Atom   1C    basis set group =>   1
Atom   2C    basis set group =>   1
Atom   3C    basis set group =>   1
Atom   4N    basis set group =>   2
Atom   5O    basis set group =>   3
Atom   6O    basis set group =>   3
Atom   7H    basis set group =>   4
Atom   8H    basis set group =>   4
Atom   9H    basis set group =>   4
Atom  10H    basis set group =>   4
Atom  11H    basis set group =>   4
------------------------------------------------------------------------------
                           ORCA GTO INTEGRAL CALCULATION
                           -- RI-GTO INTEGRALS CHOSEN --
------------------------------------------------------------------------------
------------------------------------------------------------------------------
                   ___                                                        
                  /   \      - P O W E R E D   B Y -                         
                 /     \                                                     
                 |  |  |   _    _      __       _____    __    __             
                 |  |  |  | |  | |    /  \     |  _  \  |  |  /  |          
                  \  \/   | |  | |   /    \    | | | |  |  | /  /          
                 / \  \   | |__| |  /  /\  \   | |_| |  |  |/  /          
                |  |  |   |  __  | /  /__\  \  |    /   |      \           
                |  |  |   | |  | | |   __   |  |    \   |  |\   \          
                \     /   | |  | | |  |  |  |  | |\  \  |  | \   \       
                 \___/    |_|  |_| |__|  |__|  |_| \__\ |__|  \__/        
                                                                              
                      - O R C A' S   B I G   F R I E N D -                    
                                      &                                       
                       - I N T E G R A L  F E E D E R -                       
                                                                              
 v1 FN, 2020, v2 2021                                                         
------------------------------------------------------------------------------


Reading SHARK input file F.SHARKINP.tmp ... ok
----------------------
SHARK INTEGRAL PACKAGE
----------------------

Number of atoms                             ...     12
Number of basis functions                   ...    322
Number of shells                            ...    114
Maximum angular momentum                    ...      3
Integral batch strategy                     ... SHARK/LIBINT Hybrid
RI-J (if used) integral strategy            ... SPLIT-RIJ (Revised 2003 algorithm where possible)
Printlevel                                  ...      1
Contraction scheme used                     ... SEGMENTED contraction
Coulomb Range Separation                    ... NOT USED
Exchange Range Separation                   ... NOT USED
Finite Nucleus Model                        ... NOT USED
Auxiliary Coulomb fitting basis             ... AVAILABLE
   # of basis functions in Aux-J            ...    398
   # of shells in Aux-J                     ...    130
   Maximum angular momentum in Aux-J        ...      4
Auxiliary J/K fitting basis                 ... NOT available
Auxiliary Correlation fitting basis         ... NOT available
Auxiliary 'external' fitting basis          ... NOT available
Integral threshold                          ...     1.000000e-10
Primitive cut-off                           ...     1.000000e-11
Primitive pair pre-selection threshold      ...     1.000000e-11

Calculating pre-screening integrals         ... done (  0.1 sec) Dimension = 114
Organizing shell pair data                  ... done (  0.1 sec)
Shell pair information
Total number of shell pairs                 ...      6555
Shell pairs after pre-screening             ...      6078
Total number of primitive shell pairs       ...     19713
Primitive shell pairs kept                  ...     13701
          la=0 lb=0:    915 shell pairs
          la=1 lb=0:   1801 shell pairs
          la=1 lb=1:    906 shell pairs
          la=2 lb=0:    774 shell pairs
          la=2 lb=1:    777 shell pairs
          la=2 lb=2:    175 shell pairs
          la=3 lb=0:    285 shell pairs
          la=3 lb=1:    291 shell pairs
          la=3 lb=2:    127 shell pairs
          la=3 lb=3:     27 shell pairs

Calculating one electron integrals          ... done (  0.1 sec)
Calculating RI/J V-Matrix + Cholesky decomp.... done (  0.0 sec)
Calculating Nuclear repulsion               ... done (  0.0 sec) ENN=    294.099241308058 Eh

SHARK setup successfully completed in   0.5 seconds

Maximum memory used throughout the entire GTOINT-calculation: 98.4 MB
-------------------------------------------------------------------------------
                                 ORCA SCF
-------------------------------------------------------------------------------

------------
SCF SETTINGS
------------
Hamiltonian:
 Density Functional     Method          .... DFT(GTOs)
 Exchange Functional    Exchange        .... PBE
   PBE kappa parameter   XKappa         ....  0.804000
   PBE mue parameter    XMuePBE         ....  0.219520
 Correlation Functional Correlation     .... PBE
   PBE beta parameter  CBetaPBE         ....  0.066725
 LDA part of GGA corr.  LDAOpt          .... PW91-LDA
 Gradients option       PostSCFGGA      .... off
   Density functional embedding theory  .... OFF
   NL short-range parameter             ....  6.400000
 RI-approximation to the Coulomb term is turned on
   Number of AuxJ basis functions       .... 398


General Settings:
 Integral files         IntName         .... F
 Hartree-Fock type      HFTyp           .... RHF
 Total Charge           Charge          ....    0
 Multiplicity           Mult            ....    1
 Number of Electrons    NEL             ....   52
 Basis Dimension        Dim             ....  322
 Nuclear Repulsion      ENuc            ....    294.0992413081 Eh

Convergence Acceleration:
 DIIS                   CNVDIIS         .... on
   Start iteration      DIISMaxIt       ....    12
   Startup error        DIISStart       ....  0.200000
   # of expansion vecs  DIISMaxEq       ....     5
   Bias factor          DIISBfac        ....   1.050
   Max. coefficient     DIISMaxC        ....  10.000
 Trust-Rad. Augm. Hess. CNVTRAH         .... auto
   Auto Start mean grad. ratio tolernc. ....  1.125000
   Auto Start start iteration           ....    20
   Auto Start num. interpolation iter.  ....    10
   Max. Number of Micro iterations      ....    16
   Max. Number of Macro iterations      .... Maxiter - #DIIS iter
   Number of Davidson start vectors     ....     2
   Converg. threshold I  (grad. norm)   ....   5.000e-05
   Converg. threshold II (energy diff.) ....   1.000e-06
   Grad. Scal. Fac. for Micro threshold ....   0.100
   Minimum threshold for Micro iter.    ....   0.010
   NR start threshold (gradient norm)   ....   0.001
   Initial trust radius                 ....   0.400
   Minimum AH scaling param. (alpha)    ....   1.000
   Maximum AH scaling param. (alpha)    .... 1000.000
   Orbital update algorithm             .... Taylor
   White noise on init. David. guess    .... on
   Maximum white noise                  ....   0.010
   Quad. conv. algorithm                .... NR
 SOSCF                  CNVSOSCF        .... on
   Start iteration      SOSCFMaxIt      ....   150
   Startup grad/error   SOSCFStart      ....  0.003300
 Level Shifting         CNVShift        .... on
   Level shift para.    LevelShift      ....    0.2500
   Turn off err/grad.   ShiftErr        ....    0.0010
 Zerner damping         CNVZerner       .... off
 Static damping         CNVDamp         .... on
   Fraction old density DampFac         ....    0.7000
   Max. Damping (<1)    DampMax         ....    0.9800
   Min. Damping (>=0)   DampMin         ....    0.0000
   Turn off err/grad.   DampErr         ....    0.1000
 Fernandez-Rico         CNVRico         .... off

SCF Procedure:
 Maximum # iterations   MaxIter         ....   125
 SCF integral mode      SCFMode         .... Direct
   Integral package                     .... SHARK and LIBINT hybrid scheme
 Reset frequency        DirectResetFreq ....    20
 Integral Threshold     Thresh          ....  1.000e-10 Eh
 Primitive CutOff       TCut            ....  1.000e-11 Eh

Convergence Tolerance:
 Convergence Check Mode ConvCheckMode   .... Total+1el-Energy
 Convergence forced     ConvForced      .... 0
 Energy Change          TolE            ....  1.000e-06 Eh
 1-El. energy change                    ....  1.000e-03 Eh
 Orbital Gradient       TolG            ....  5.000e-05
 Orbital Rotation angle TolX            ....  5.000e-05
 DIIS Error             TolErr          ....  1.000e-06


Diagonalization of the overlap matrix:
Smallest eigenvalue                        ... 1.548e-04
Time for diagonalization                   ...    0.036 sec
Threshold for overlap eigenvalues          ... 1.000e-08
Number of eigenvalues below threshold      ... 0
Time for construction of square roots      ...    0.015 sec
Total time needed                          ...    0.051 sec

Time for model grid setup =    0.320 sec

------------------------------
INITIAL GUESS: MODEL POTENTIAL
------------------------------
Loading Hartree-Fock densities                     ... done
Calculating cut-offs                               ... done
Initializing the effective Hamiltonian             ... done
Setting up the integral package (SHARK)            ... done
Starting the Coulomb interaction                   ... done (   0.4 sec)
Reading the grid                                   ... done
Mapping shells                                     ... done
Starting the XC term evaluation                    ... done (   0.7 sec)
  promolecular density results
     # of electrons  =     51.996861754
     EX              =    -44.810562217
     EC              =     -1.750366890
     EX+EC           =    -46.560929107
Transforming the Hamiltonian                       ... done (   0.0 sec)
Diagonalizing the Hamiltonian                      ... done (   0.0 sec)
Back transforming the eigenvectors                 ... done (   0.0 sec)
Now organizing SCF variables                       ... done
                      ------------------
                      INITIAL GUESS DONE (   1.5 sec)
                      ------------------
-------------------
DFT GRID GENERATION
-------------------

General Integration Accuracy     IntAcc      ... 4.388
Radial Grid Type                 RadialGrid  ... OptM3 with GC (2021)
Angular Grid (max. ang.)         AngularGrid ... 4 (Lebedev-302)
Angular grid pruning method      GridPruning ... 4 (adaptive)
Weight generation scheme         WeightScheme... Becke
Basis function cutoff            BFCut       ... 1.0000e-10
Integration weight cutoff        WCut        ... 1.0000e-14
Angular grids for H and He will be reduced by one unit
Partially contracted basis set               ... off
Rotationally invariant grid construction     ... off

Total number of grid points                  ...    59055
Total number of batches                      ...      929
Average number of points per batch           ...       63
Average number of grid points per atom       ...     4921
Time for grid setup =    1.070 sec

--------------
SCF ITERATIONS
--------------
ITER       Energy         Delta-E        Max-DP      RMS-DP      [F,P]     Damp
               ***  Starting incremental Fock matrix formation  ***
  0   -360.1645117913   0.000000000000 0.10624869  0.00136934  0.2661316 0.7000
  1   -360.2918421972  -0.127330405949 0.10621614  0.00108775  0.0790620 0.7000
                               ***Turning on DIIS***
  2   -360.3253557075  -0.033513510242 0.09776344  0.00140501  0.0310535 0.0000
  3   -360.3978828246  -0.072527117198 0.10375013  0.00090308  0.0534654 0.0000
  4   -360.4082692533  -0.010386428636 0.02935390  0.00029151  0.0268164 0.0000
                      *** Initiating the SOSCF procedure ***
                           *** Shutting down DIIS ***
                      *** Re-Reading the Fockian *** 
                      *** Removing any level shift *** 
ITER      Energy       Delta-E        Grad      Rot      Max-DP    RMS-DP
  5   -360.41096281  -0.0026935534  0.000794  0.000794  0.011776  0.000110
               *** Restarting incremental Fock matrix formation ***
  6   -360.41105311  -0.0000903003  0.000506  0.002074  0.004348  0.000047
  7   -360.41103987   0.0000132363  0.001278  0.001281  0.002485  0.000025
  8   -360.41105816  -0.0000182847  0.000153  0.000385  0.001975  0.000019
  9   -360.41105782   0.0000003333  0.000162  0.000164  0.000350  0.000004
                 **** Energy Check signals convergence ****
              ***Rediagonalizing the Fockian in SOSCF/NRSCF***

               *****************************************************
               *                     SUCCESS                       *
               *           SCF CONVERGED AFTER  10 CYCLES          *
               *****************************************************


----------------
TOTAL SCF ENERGY
----------------

Total Energy       :         -360.41105872 Eh           -9807.28350 eV

Components:
Nuclear Repulsion  :          294.09924131 Eh            8002.84721 eV
Electronic Energy  :         -654.51030002 Eh          -17810.13071 eV
One Electron Energy:        -1072.96054248 Eh          -29196.74069 eV
Two Electron Energy:          418.45024246 Eh           11386.60998 eV

Virial components:
Potential Energy   :         -719.95950372 Eh          -19591.09409 eV
Kinetic Energy     :          359.54844501 Eh            9783.81059 eV
Virial Ratio       :            2.00239916


DFT components:
N(Alpha)           :       25.999977044470 electrons
N(Beta)            :       25.999977044470 electrons
N(Total)           :       51.999954088941 electrons
E(X)               :      -45.584706745250 Eh       
E(C)               :       -1.753057314924 Eh       
E(XC)              :      -47.337764060174 Eh       
DFET-embed. en.    :        0.000000000000 Eh       

---------------
SCF CONVERGENCE
---------------

  Last Energy change         ...   -8.9360e-07  Tolerance :   1.0000e-06
  Last MAX-Density change    ...    3.5742e-04  Tolerance :   1.0000e-05
  Last RMS-Density change    ...    3.4280e-06  Tolerance :   1.0000e-06
  Last Orbital Gradient      ...    2.2624e-05  Tolerance :   5.0000e-05
  Last Orbital Rotation      ...    6.9117e-05  Tolerance :   5.0000e-05

             **** THE GBW FILE WAS UPDATED (F.gbw) ****
             **** DENSITY F.scfp WAS UPDATED ****
             **** ENERGY FILE WAS UPDATED (F.en.tmp) ****
             **** THE GBW FILE WAS UPDATED (F.gbw) ****
             **** DENSITY F.scfp WAS UPDATED ****
----------------
ORBITAL ENERGIES
----------------

  NO   OCC          E(Eh)            E(eV) 
   0   2.0000     -18.744100      -510.0529 
   1   2.0000     -18.744069      -510.0521 
   2   2.0000     -14.045062      -382.1856 
   3   2.0000     -10.005270      -272.2572 
   4   2.0000     -10.005240      -272.2564 
   5   2.0000      -9.916037      -269.8291 
   6   2.0000      -9.915908      -269.8256 
   7   2.0000      -0.995879       -27.0992 
   8   2.0000      -0.977023       -26.5861 
   9   2.0000      -0.887834       -24.1592 
  10   2.0000      -0.746994       -20.3268 
  11   2.0000      -0.642775       -17.4908 
  12   2.0000      -0.574817       -15.6416 
  13   2.0000      -0.573790       -15.6136 
  14   2.0000      -0.470495       -12.8028 
  15   2.0000      -0.443822       -12.0770 
  16   2.0000      -0.416860       -11.3433 
  17   2.0000      -0.406721       -11.0674 
  18   2.0000      -0.390634       -10.6297 
  19   2.0000      -0.387647       -10.5484 
  20   2.0000      -0.378053       -10.2874 
  21   2.0000      -0.374910       -10.2018 
  22   2.0000      -0.320509        -8.7215 
  23   2.0000      -0.272543        -7.4163 
  24   2.0000      -0.254492        -6.9251 
  25   2.0000      -0.226426        -6.1614 
  26   0.0000      -0.065361        -1.7786 
  27   0.0000      -0.028658        -0.7798 
  28   0.0000      -0.016701        -0.4545 
  29   0.0000       0.013576         0.3694 
  30   0.0000       0.030829         0.8389 
  31   0.0000       0.034433         0.9370 
  32   0.0000       0.064280         1.7491 
  33   0.0000       0.084616         2.3025 
  34   0.0000       0.086647         2.3578 
  35   0.0000       0.103863         2.8263 
  36   0.0000       0.122800         3.3416 
  37   0.0000       0.125230         3.4077 
  38   0.0000       0.135519         3.6877 
  39   0.0000       0.180385         4.9085 
  40   0.0000       0.190455         5.1825 
  41   0.0000       0.198353         5.3975 
  42   0.0000       0.199618         5.4319 
  43   0.0000       0.214132         5.8268 
  44   0.0000       0.230513         6.2726 
  45   0.0000       0.238656         6.4942 
  46   0.0000       0.250869         6.8265 
  47   0.0000       0.271909         7.3990 
  48   0.0000       0.273745         7.4490 
  49   0.0000       0.290083         7.8936 
  50   0.0000       0.300618         8.1802 
  51   0.0000       0.314951         8.5703 
  52   0.0000       0.318205         8.6588 
  53   0.0000       0.319583         8.6963 
  54   0.0000       0.321898         8.7593 
  55   0.0000       0.342339         9.3155 
  56   0.0000       0.350170         9.5286 
  57   0.0000       0.365351         9.9417 
  58   0.0000       0.372251        10.1295 
  59   0.0000       0.417938        11.3727 
  60   0.0000       0.436076        11.8662 
  61   0.0000       0.436957        11.8902 
  62   0.0000       0.455649        12.3988 
  63   0.0000       0.463293        12.6068 
  64   0.0000       0.469763        12.7829 
  65   0.0000       0.496522        13.5111 
  66   0.0000       0.576745        15.6940 
  67   0.0000       0.579862        15.7788 
  68   0.0000       0.587659        15.9910 
  69   0.0000       0.601391        16.3647 
  70   0.0000       0.628381        17.0991 
  71   0.0000       0.644804        17.5460 
  72   0.0000       0.713884        19.4258 
  73   0.0000       0.746494        20.3131 
  74   0.0000       0.766058        20.8455 
  75   0.0000       0.780848        21.2479 
  76   0.0000       0.786451        21.4004 
  77   0.0000       0.851086        23.1592 
  78   0.0000       0.870859        23.6973 
  79   0.0000       0.893865        24.3233 
  80   0.0000       0.906437        24.6654 
  81   0.0000       0.921106        25.0646 
  82   0.0000       0.944300        25.6957 
  83   0.0000       0.975787        26.5525 
  84   0.0000       0.991879        26.9904 
  85   0.0000       0.993036        27.0219 
  86   0.0000       0.995171        27.0800 
  87   0.0000       1.027905        27.9707 
  88   0.0000       1.063280        28.9333 
  89   0.0000       1.065324        28.9889 
  90   0.0000       1.068806        29.0837 
  91   0.0000       1.074335        29.2341 
  92   0.0000       1.092420        29.7263 
  93   0.0000       1.100083        29.9348 
  94   0.0000       1.115084        30.3430 
  95   0.0000       1.129471        30.7345 
  96   0.0000       1.134523        30.8719 
  97   0.0000       1.149908        31.2906 
  98   0.0000       1.211884        32.9770 
  99   0.0000       1.236222        33.6393 
 100   0.0000       1.270469        34.5712 
 101   0.0000       1.293568        35.1998 
 102   0.0000       1.310659        35.6648 
 103   0.0000       1.369616        37.2691 
 104   0.0000       1.395606        37.9764 
 105   0.0000       1.408804        38.3355 
 106   0.0000       1.409015        38.3412 
 107   0.0000       1.412950        38.4483 
 108   0.0000       1.452607        39.5274 
 109   0.0000       1.496980        40.7349 
 110   0.0000       1.542767        41.9808 
 111   0.0000       1.550278        42.1852 
 112   0.0000       1.561885        42.5010 
 113   0.0000       1.587536        43.1991 
 114   0.0000       1.621905        44.1343 
 115   0.0000       1.664261        45.2868 
 116   0.0000       1.675280        45.5867 
 117   0.0000       1.688683        45.9514 
 118   0.0000       1.710239        46.5380 
 119   0.0000       1.726838        46.9897 
 120   0.0000       1.738108        47.2963 
 121   0.0000       1.751943        47.6728 
 122   0.0000       1.782218        48.4966 
 123   0.0000       1.787371        48.6368 
 124   0.0000       1.818718        49.4898 
 125   0.0000       1.845695        50.2239 
 126   0.0000       1.870669        50.9035 
 127   0.0000       1.945399        52.9370 
 128   0.0000       1.959813        53.3292 
 129   0.0000       1.964306        53.4515 
 130   0.0000       1.983267        53.9674 
 131   0.0000       2.013630        54.7936 
 132   0.0000       2.036968        55.4287 
 133   0.0000       2.047350        55.7112 
 134   0.0000       2.114387        57.5354 
 135   0.0000       2.135924        58.1214 
 136   0.0000       2.212411        60.2028 
 137   0.0000       2.224886        60.5422 
 138   0.0000       2.252443        61.2921 
 139   0.0000       2.264334        61.6157 
 140   0.0000       2.339924        63.6726 
 141   0.0000       2.380095        64.7657 
 142   0.0000       2.386985        64.9532 
 143   0.0000       2.553639        69.4881 
 144   0.0000       2.587380        70.4062 
 145   0.0000       2.618753        71.2599 
 146   0.0000       2.693791        73.3018 
 147   0.0000       2.701231        73.5042 
 148   0.0000       2.745982        74.7220 
 149   0.0000       2.801106        76.2220 
 150   0.0000       2.849950        77.5511 
 151   0.0000       2.886449        78.5443 
 152   0.0000       2.902277        78.9750 
 153   0.0000       2.984534        81.2133 
 154   0.0000       3.049593        82.9836 
 155   0.0000       3.064870        83.3994 
 156   0.0000       3.148941        85.6870 
 157   0.0000       3.151649        85.7607 
 158   0.0000       3.165592        86.1401 
 159   0.0000       3.199025        87.0499 
 160   0.0000       3.270233        88.9876 
 161   0.0000       3.274382        89.1005 
 162   0.0000       3.281872        89.3043 
 163   0.0000       3.358042        91.3770 
 164   0.0000       3.414315        92.9082 
 165   0.0000       3.423376        93.1548 
 166   0.0000       3.466745        94.3349 
 167   0.0000       3.531693        96.1022 
 168   0.0000       3.544516        96.4512 
 169   0.0000       3.581513        97.4579 
 170   0.0000       3.614128        98.3454 
 171   0.0000       3.631086        98.8069 
 172   0.0000       3.650857        99.3449 
 173   0.0000       3.657174        99.5168 
 174   0.0000       3.675355       100.0115 
 175   0.0000       3.717556       101.1598 
 176   0.0000       3.731391       101.5363 
 177   0.0000       3.763011       102.3967 
 178   0.0000       3.782294       102.9214 
 179   0.0000       3.800314       103.4118 
 180   0.0000       3.839642       104.4820 
 181   0.0000       3.875192       105.4493 
 182   0.0000       3.893849       105.9570 
 183   0.0000       3.910221       106.4025 
 184   0.0000       3.939403       107.1966 
 185   0.0000       3.944889       107.3459 
 186   0.0000       3.946237       107.3826 
 187   0.0000       3.947962       107.4295 
 188   0.0000       3.991587       108.6166 
 189   0.0000       3.998825       108.8136 
 190   0.0000       4.029921       109.6597 
 191   0.0000       4.037762       109.8731 
 192   0.0000       4.071761       110.7983 
 193   0.0000       4.079003       110.9953 
 194   0.0000       4.079363       111.0051 
 195   0.0000       4.088364       111.2501 
 196   0.0000       4.135541       112.5338 
 197   0.0000       4.143105       112.7396 
 198   0.0000       4.171330       113.5077 
 199   0.0000       4.175693       113.6264 
 200   0.0000       4.180310       113.7520 
 201   0.0000       4.206256       114.4580 
 202   0.0000       4.219002       114.8049 
 203   0.0000       4.235139       115.2440 
 204   0.0000       4.248973       115.6204 
 205   0.0000       4.287023       116.6558 
 206   0.0000       4.314261       117.3970 
 207   0.0000       4.348958       118.3412 
 208   0.0000       4.352427       118.4356 
 209   0.0000       4.359566       118.6298 
 210   0.0000       4.417100       120.1954 
 211   0.0000       4.432561       120.6161 
 212   0.0000       4.463652       121.4621 
 213   0.0000       4.472767       121.7102 
 214   0.0000       4.474448       121.7559 
 215   0.0000       4.510099       122.7260 
 216   0.0000       4.511795       122.7722 
 217   0.0000       4.512591       122.7938 
 218   0.0000       4.569190       124.3340 
 219   0.0000       4.582844       124.7055 
 220   0.0000       4.597940       125.1163 
 221   0.0000       4.637510       126.1931 
 222   0.0000       4.646056       126.4256 
 223   0.0000       4.654535       126.6563 
 224   0.0000       4.660481       126.8181 
 225   0.0000       4.683437       127.4428 
 226   0.0000       4.701987       127.9476 
 227   0.0000       4.727245       128.6349 
 228   0.0000       4.756370       129.4274 
 229   0.0000       4.787916       130.2858 
 230   0.0000       4.829561       131.4190 
 231   0.0000       4.853663       132.0749 
 232   0.0000       4.873751       132.6215 
 233   0.0000       4.894243       133.1791 
 234   0.0000       4.917835       133.8211 
 235   0.0000       4.921189       133.9124 
 236   0.0000       4.989281       135.7652 
 237   0.0000       5.045821       137.3038 
 238   0.0000       5.086067       138.3989 
 239   0.0000       5.128226       139.5461 
 240   0.0000       5.183965       141.0629 
 241   0.0000       5.221140       142.0744 
 242   0.0000       5.244626       142.7135 
 243   0.0000       5.254384       142.9791 
 244   0.0000       5.276704       143.5864 
 245   0.0000       5.382289       146.4595 
 246   0.0000       5.384215       146.5119 
 247   0.0000       5.438509       147.9894 
 248   0.0000       5.439658       148.0206 
 249   0.0000       5.450974       148.3285 
 250   0.0000       5.462600       148.6449 
 251   0.0000       5.544455       150.8723 
 252   0.0000       5.553291       151.1127 
 253   0.0000       5.555554       151.1743 
 254   0.0000       5.647011       153.6630 
 255   0.0000       5.651256       153.7785 
 256   0.0000       5.667765       154.2277 
 257   0.0000       5.712808       155.4534 
 258   0.0000       5.728112       155.8699 
 259   0.0000       5.768868       156.9789 
 260   0.0000       5.795064       157.6917 
 261   0.0000       5.845441       159.0625 
 262   0.0000       5.909617       160.8088 
 263   0.0000       5.945978       161.7983 
 264   0.0000       5.959019       162.1531 
 265   0.0000       5.998448       163.2261 
 266   0.0000       6.002493       163.3361 
 267   0.0000       6.003923       163.3750 
 268   0.0000       6.036163       164.2524 
 269   0.0000       6.100020       165.9900 
 270   0.0000       6.108719       166.2267 
 271   0.0000       6.115254       166.4045 
 272   0.0000       6.174468       168.0158 
 273   0.0000       6.220982       169.2815 
 274   0.0000       6.417993       174.6425 
 275   0.0000       6.428270       174.9221 
 276   0.0000       6.438455       175.1993 
 277   0.0000       6.467526       175.9903 
 278   0.0000       6.507775       177.0856 
 279   0.0000       6.570417       178.7901 
 280   0.0000       6.579551       179.0387 
 281   0.0000       6.628774       180.3781 
 282   0.0000       6.670892       181.5242 
 283   0.0000       6.706919       182.5045 
 284   0.0000       6.741453       183.4443 
 285   0.0000       6.891707       187.5329 
 286   0.0000       6.914629       188.1566 
 287   0.0000       7.077912       192.5998 
 288   0.0000       7.125781       193.9023 
 289   0.0000       7.299648       198.6335 
 290   0.0000       7.665054       208.5767 
 291   0.0000       7.954594       216.4555 
 292   0.0000       7.979918       217.1446 
 293   0.0000       8.068097       219.5441 
 294   0.0000       8.187843       222.8025 
 295   0.0000       8.195883       223.0213 
 296   0.0000       8.686586       236.3740 
 297   0.0000       8.861801       241.1419 
 298   0.0000       8.899909       242.1788 
 299   0.0000       9.911927       269.7173 
 300   0.0000       9.943191       270.5680 
 301   0.0000      18.358033       499.5475 
 302   0.0000      18.405688       500.8442 
 303   0.0000      18.526489       504.1314 
 304   0.0000      18.656061       507.6572 
 305   0.0000      18.697540       508.7859 
 306   0.0000      18.745141       510.0812 
 307   0.0000      18.878060       513.6981 
 308   0.0000      19.293745       525.0095 
 309   0.0000      19.438723       528.9545 
 310   0.0000      19.650829       534.7262 
 311   0.0000      19.747916       537.3681 
 312   0.0000      20.166096       548.7474 
 313   0.0000      26.434591       719.3218 
 314   0.0000      27.065871       736.4998 
 315   0.0000      27.247856       741.4519 
 316   0.0000      33.137841       901.7265 
 317   0.0000      33.159348       902.3117 
 318   0.0000      33.254458       904.8998 
 319   0.0000      33.277178       905.5181 
 320   0.0000      33.641902       915.4427 
 321   0.0000      33.674271       916.3235 

                    ********************************
                    * MULLIKEN POPULATION ANALYSIS *
                    ********************************

-----------------------
MULLIKEN ATOMIC CHARGES
-----------------------
   0 C :   -0.048594
   1 C :   -0.048679
   2 C :    0.265053
   3 C :    0.265019
   4 N :   -0.187198
   5 O :   -0.353951
   6 O :   -0.353860
   7 H :    0.072203
   8 H :    0.072409
   9 H :    0.072197
  10 H :    0.072425
  11 H :    0.172976
Sum of atomic charges:    0.0000000

--------------------------------
MULLIKEN REDUCED ORBITAL CHARGES
--------------------------------
  0 C s       :     2.991138  s :     2.991138
      pz      :     1.004539  p :     2.994536
      px      :     1.009547
      py      :     0.980450
      dz2     :     0.010052  d :     0.060413
      dxz     :     0.011728
      dyz     :     0.014014
      dx2y2   :     0.015470
      dxy     :     0.009148
      f0      :     0.000361  f :     0.002506
      f+1     :     0.000364
      f-1     :     0.000268
      f+2     :     0.000301
      f-2     :     0.000419
      f+3     :     0.000319
      f-3     :     0.000474
  1 C s       :     2.991107  s :     2.991107
      pz      :     1.031011  p :     2.994647
      px      :     0.989101
      py      :     0.974535
      dz2     :     0.013559  d :     0.060419
      dxz     :     0.011284
      dyz     :     0.008021
      dx2y2   :     0.013386
      dxy     :     0.014169
      f0      :     0.000190  f :     0.002507
      f+1     :     0.000381
      f-1     :     0.000272
      f+2     :     0.000456
      f-2     :     0.000401
      f+3     :     0.000371
      f-3     :     0.000437
  2 C s       :     3.014640  s :     3.014640
      pz      :     0.792026  p :     2.517720
      px      :     0.794121
      py      :     0.931573
      dz2     :     0.043516  d :     0.189699
      dxz     :     0.033570
      dyz     :     0.025139
      dx2y2   :     0.040551
      dxy     :     0.046923
      f0      :     0.001311  f :     0.012889
      f+1     :     0.002370
      f-1     :     0.001161
      f+2     :     0.002214
      f-2     :     0.001919
      f+3     :     0.002199
      f-3     :     0.001714
  3 C s       :     3.014787  s :     3.014787
      pz      :     0.808864  p :     2.517649
      px      :     0.781386
      py      :     0.927399
      dz2     :     0.036916  d :     0.189660
      dxz     :     0.028439
      dyz     :     0.041785
      dx2y2   :     0.045374
      dxy     :     0.037146
      f0      :     0.001494  f :     0.012885
      f+1     :     0.002152
      f-1     :     0.001476
      f+2     :     0.002370
      f-2     :     0.002326
      f+3     :     0.001866
      f-3     :     0.001200
  4 N s       :     3.341123  s :     3.341123
      pz      :     1.336460  p :     3.790283
      px      :     1.276173
      py      :     1.177650
      dz2     :     0.008857  d :     0.051557
      dxz     :     0.009352
      dyz     :     0.010007
      dx2y2   :     0.010496
      dxy     :     0.012846
      f0      :     0.000475  f :     0.004234
      f+1     :     0.000841
      f-1     :     0.000428
      f+2     :     0.000813
      f-2     :     0.000724
      f+3     :     0.000624
      f-3     :     0.000329
  5 O s       :     3.826885  s :     3.826885
      pz      :     1.480362  p :     4.487093
      px      :     1.360724
      py      :     1.646007
      dz2     :     0.006552  d :     0.036552
      dxz     :     0.008894
      dyz     :     0.004386
      dx2y2   :     0.008696
      dxy     :     0.008023
      f0      :     0.000208  f :     0.003420
      f+1     :     0.000730
      f-1     :     0.000249
      f+2     :     0.000537
      f-2     :     0.000557
      f+3     :     0.000668
      f-3     :     0.000472
  6 O s       :     3.826881  s :     3.826881
      pz      :     1.359481  p :     4.487006
      px      :     1.449959
      py      :     1.677565
      dz2     :     0.009800  d :     0.036553
      dxz     :     0.009424
      dyz     :     0.005852
      dx2y2   :     0.005646
      dxy     :     0.005831
      f0      :     0.000514  f :     0.003420
      f+1     :     0.000761
      f-1     :     0.000264
      f+2     :     0.000626
      f-2     :     0.000599
      f+3     :     0.000328
      f-3     :     0.000329
  7 H s       :     0.881508  s :     0.881508
      pz      :     0.012726  p :     0.043953
      px      :     0.021717
      py      :     0.009510
      dz2     :     0.000334  d :     0.002336
      dxz     :     0.000768
      dyz     :     0.000177
      dx2y2   :     0.000567
      dxy     :     0.000489
  8 H s       :     0.881240  s :     0.881240
      pz      :     0.016549  p :     0.044014
      px      :     0.009302
      py      :     0.018163
      dz2     :     0.000503  d :     0.002338
      dxz     :     0.000381
      dyz     :     0.000755
      dx2y2   :     0.000404
      dxy     :     0.000295
  9 H s       :     0.881489  s :     0.881489
      pz      :     0.009754  p :     0.043977
      px      :     0.016966
      py      :     0.017257
      dz2     :     0.000293  d :     0.002337
      dxz     :     0.000394
      dyz     :     0.000289
      dx2y2   :     0.000622
      dxy     :     0.000738
 10 H s       :     0.881257  s :     0.881257
      pz      :     0.024519  p :     0.043982
      px      :     0.010281
      py      :     0.009181
      dz2     :     0.000915  d :     0.002336
      dxz     :     0.000718
      dyz     :     0.000581
      dx2y2   :     0.000053
      dxy     :     0.000069
 11 H s       :     0.763941  s :     0.763941
      pz      :     0.015309  p :     0.058575
      px      :     0.012733
      py      :     0.030533
      dz2     :     0.000578  d :     0.004507
      dxz     :     0.000182
      dyz     :     0.001282
      dx2y2   :     0.001322
      dxy     :     0.001144


                     *******************************
                     * LOEWDIN POPULATION ANALYSIS *
                     *******************************

----------------------
LOEWDIN ATOMIC CHARGES
----------------------
   0 C :   -0.026849
   1 C :   -0.026930
   2 C :   -0.175047
   3 C :   -0.174903
   4 N :    0.206022
   5 O :   -0.015661
   6 O :   -0.015621
   7 H :    0.048858
   8 H :    0.049096
   9 H :    0.048916
  10 H :    0.049122
  11 H :    0.032997

-------------------------------
LOEWDIN REDUCED ORBITAL CHARGES
-------------------------------
  0 C s       :     2.751736  s :     2.751736
      pz      :     1.018434  p :     3.032461
      px      :     1.018764
      py      :     0.995264
      dz2     :     0.028072  d :     0.221621
      dxz     :     0.047570
      dyz     :     0.061096
      dx2y2   :     0.060167
      dxy     :     0.024716
      f0      :     0.003544  f :     0.021030
      f+1     :     0.002189
      f-1     :     0.002839
      f+2     :     0.003099
      f-2     :     0.002549
      f+3     :     0.003049
      f-3     :     0.003760
  1 C s       :     2.751684  s :     2.751684
      pz      :     1.035176  p :     3.032527
      px      :     1.005962
      py      :     0.991389
      dz2     :     0.061428  d :     0.221679
      dxz     :     0.039547
      dyz     :     0.021537
      dx2y2   :     0.039220
      dxy     :     0.059947
      f0      :     0.002770  f :     0.021039
      f+1     :     0.002994
      f-1     :     0.002909
      f+2     :     0.002969
      f-2     :     0.002909
      f+3     :     0.003255
      f-3     :     0.003232
  2 C s       :     2.759069  s :     2.759069
      pz      :     0.857149  p :     2.732864
      px      :     0.913434
      py      :     0.962281
      dz2     :     0.127622  d :     0.614398
      dxz     :     0.123760
      dyz     :     0.081001
      dx2y2   :     0.124787
      dxy     :     0.157229
      f0      :     0.006777  f :     0.068716
      f+1     :     0.010124
      f-1     :     0.007374
      f+2     :     0.012678
      f-2     :     0.009003
      f+3     :     0.012743
      f-3     :     0.010017
  3 C s       :     2.759158  s :     2.759158
      pz      :     0.885777  p :     2.732797
      px      :     0.892133
      py      :     0.954888
      dz2     :     0.105488  d :     0.614263
      dxz     :     0.108315
      dyz     :     0.136595
      dx2y2   :     0.140446
      dxy     :     0.123419
      f0      :     0.007903  f :     0.068685
      f+1     :     0.009621
      f-1     :     0.008659
      f+2     :     0.011562
      f-2     :     0.011411
      f+3     :     0.012084
      f-3     :     0.007445
  4 N s       :     2.940479  s :     2.940479
      pz      :     1.258617  p :     3.665125
      px      :     1.225929
      py      :     1.180579
      dz2     :     0.026609  d :     0.170003
      dxz     :     0.031585
      dyz     :     0.032213
      dx2y2   :     0.041319
      dxy     :     0.038277
      f0      :     0.001891  f :     0.018370
      f+1     :     0.002617
      f-1     :     0.002099
      f+2     :     0.003606
      f-2     :     0.002549
      f+3     :     0.003521
      f-3     :     0.002087
  5 O s       :     3.450850  s :     3.450850
      pz      :     1.454807  p :     4.479486
      px      :     1.430133
      py      :     1.594547
      dz2     :     0.010457  d :     0.071820
      dxz     :     0.019548
      dyz     :     0.007783
      dx2y2   :     0.014956
      dxy     :     0.019075
      f0      :     0.001266  f :     0.013505
      f+1     :     0.002211
      f-1     :     0.000542
      f+2     :     0.002337
      f-2     :     0.002697
      f+3     :     0.002090
      f-3     :     0.002361
  6 O s       :     3.450866  s :     3.450866
      pz      :     1.406210  p :     4.479428
      px      :     1.465976
      py      :     1.607242
      dz2     :     0.013119  d :     0.071822
      dxz     :     0.022707
      dyz     :     0.013410
      dx2y2   :     0.011187
      dxy     :     0.011399
      f0      :     0.001278  f :     0.013504
      f+1     :     0.002986
      f-1     :     0.001056
      f+2     :     0.002976
      f-2     :     0.003093
      f+3     :     0.001139
      f-3     :     0.000977
  7 H s       :     0.801985  s :     0.801985
      pz      :     0.037531  p :     0.129867
      px      :     0.056857
      py      :     0.035479
      dz2     :     0.003018  d :     0.019291
      dxz     :     0.005438
      dyz     :     0.001596
      dx2y2   :     0.004460
      dxy     :     0.004778
  8 H s       :     0.801614  s :     0.801614
      pz      :     0.048059  p :     0.130003
      px      :     0.032594
      py      :     0.049351
      dz2     :     0.004634  d :     0.019286
      dxz     :     0.003228
      dyz     :     0.005216
      dx2y2   :     0.003320
      dxy     :     0.002888
  9 H s       :     0.801886  s :     0.801886
      pz      :     0.033734  p :     0.129913
      px      :     0.048665
      py      :     0.047514
      dz2     :     0.002189  d :     0.019285
      dxz     :     0.003375
      dyz     :     0.002722
      dx2y2   :     0.005867
      dxy     :     0.005132
 10 H s       :     0.801645  s :     0.801645
      pz      :     0.061565  p :     0.129946
      px      :     0.033483
      py      :     0.034898
      dz2     :     0.006742  d :     0.019287
      dxz     :     0.005782
      dyz     :     0.005684
      dx2y2   :     0.000487
      dxy     :     0.000592
 11 H s       :     0.721263  s :     0.721263
      pz      :     0.057072  p :     0.205414
      px      :     0.048732
      py      :     0.099610
      dz2     :     0.005148  d :     0.040326
      dxz     :     0.001736
      dyz     :     0.011715
      dx2y2   :     0.011006
      dxy     :     0.010721


                      *****************************
                      * MAYER POPULATION ANALYSIS *
                      *****************************

  NA   - Mulliken gross atomic population
  ZA   - Total nuclear charge
  QA   - Mulliken gross atomic charge
  VA   - Mayer's total valence
  BVA  - Mayer's bonded valence
  FA   - Mayer's free valence

  ATOM       NA         ZA         QA         VA         BVA        FA
  0 C      6.0486     6.0000    -0.0486     3.8889     3.8889     0.0000
  1 C      6.0487     6.0000    -0.0487     3.8889     3.8889     0.0000
  2 C      5.7349     6.0000     0.2651     4.1556     4.1556    -0.0000
  3 C      5.7350     6.0000     0.2650     4.1556     4.1556     0.0000
  4 N      7.1872     7.0000    -0.1872     3.2525     3.2525     0.0000
  5 O      8.3540     8.0000    -0.3540     2.1736     2.1736     0.0000
  6 O      8.3539     8.0000    -0.3539     2.1737     2.1737     0.0000
  7 H      0.9278     1.0000     0.0722     1.0272     1.0272     0.0000
  8 H      0.9276     1.0000     0.0724     1.0268     1.0268     0.0000
  9 H      0.9278     1.0000     0.0722     1.0271     1.0271     0.0000
 10 H      0.9276     1.0000     0.0724     1.0269     1.0269     0.0000
 11 H      0.8270     1.0000     0.1730     1.0326     1.0326    -0.0000

  Mayer bond orders larger than 0.100000
B(  0-C ,  1-C ) :   0.9854 B(  0-C ,  3-C ) :   0.9443 B(  0-C ,  7-H ) :   0.9686 
B(  0-C ,  8-H ) :   0.9677 B(  1-C ,  2-C ) :   0.9443 B(  1-C ,  9-H ) :   0.9682 
B(  1-C , 10-H ) :   0.9679 B(  2-C ,  4-N ) :   1.1218 B(  2-C ,  5-O ) :   2.0326 
B(  3-C ,  4-N ) :   1.1217 B(  3-C ,  6-O ) :   2.0327 B(  4-N , 11-H ) :   0.9466 


-------
TIMINGS
-------

Total SCF time: 0 days 0 hours 0 min 34 sec 

Total time                  ....      34.482 sec
Sum of individual times     ....      34.086 sec  ( 98.9%)

Fock matrix formation       ....      31.147 sec  ( 90.3%)
  Split-RI-J                ....       8.663 sec  ( 27.8% of F)
  XC integration            ....      22.434 sec  ( 72.0% of F)
    Basis function eval.    ....       6.252 sec  ( 27.9% of XC)
    Density eval.           ....       6.639 sec  ( 29.6% of XC)
    XC-Functional eval.     ....       0.846 sec  (  3.8% of XC)
    XC-Potential eval.      ....       8.065 sec  ( 36.0% of XC)
Diagonalization             ....       0.179 sec  (  0.5%)
Density matrix formation    ....       0.017 sec  (  0.1%)
Population analysis         ....       0.013 sec  (  0.0%)
Initial guess               ....       1.170 sec  (  3.4%)
Orbital Transformation      ....       0.000 sec  (  0.0%)
Orbital Orthonormalization  ....       0.000 sec  (  0.0%)
DIIS solution               ....       0.067 sec  (  0.2%)
SOSCF solution              ....       0.103 sec  (  0.3%)
Grid generation             ....       1.390 sec  (  4.0%)

Maximum memory used throughout the entire SCF-calculation: 118.9 MB

-------------------------   --------------------
FINAL SINGLE POINT ENERGY      -360.411058715732
-------------------------   --------------------


                            ***************************************
                            *     ORCA property calculations      *
                            ***************************************

                                    ---------------------
                                    Active property flags
                                    ---------------------
   (+) Dipole Moment
   (+) Chemical Shifts
   (+) Nuclear properties (Hyperfine,Quadrupole)


------------------------------------------------------------------------------
                       ORCA ELECTRIC PROPERTIES CALCULATION
------------------------------------------------------------------------------

Dipole Moment Calculation                       ... on
Quadrupole Moment Calculation                   ... off
Polarizability Calculation                      ... off
GBWName                                         ... F.gbw
Electron density                                ... F.scfp
The origin for moment calculation is the CENTER OF MASS  = (-11.514380,  0.316859 -10.115484)

-------------
DIPOLE MOMENT
-------------
                                X             Y             Z
Electronic contribution:      0.73724       3.85481      -1.22635
Nuclear contribution   :     -0.87053      -4.58102       1.45020
                        -----------------------------------------
Total Dipole Moment    :     -0.13328      -0.72621       0.22384
                        -----------------------------------------
Magnitude (a.u.)       :      0.77153
Magnitude (Debye)      :      1.96106



--------------------
Rotational spectrum 
--------------------
 
Rotational constants in cm-1:     0.199573     0.076287     0.056329 
Rotational constants in MHz :  5983.058266  2287.034537  1688.698861 

 Dipole components along the rotational axes: 
x,y,z [a.u.] :     0.000224    -0.771477     0.008662 
x,y,z [Debye]:     0.000569    -1.960939     0.022017 

 
------------------------------------------------------------------------------
                                ORCA EPR/NMR CALCULATION
------------------------------------------------------------------------------

GBWName                      ... F.gbw
Electron density             ... F.scfp
Spin density                 ... F.scfr
Treatment of gauge           ... GIAO (approximations 1/2el = 0,0)
Details of the CP(SCF) procedure:
       Solver   = POPLE   
       MaxIter  =    64   
       Tolerance=    1.000e-03
       Op-0     =   0- 25 =>  26-321
Multiplicity                 ... 1
g-tensor                     ... 0
NMR chemical shifts          ... 1
NMR spin-spin couplings      ... 0
NMR spectrum                 ... 0
Number of nuclei for epr/nmr ... 12
   Nucleus:   0C 
       Hyperfine : Isotope=   13 I=   0.500 P= 134.188
       Quadrupole: Isotope=   13 I=   0.500 Q=   0.000
       Spin-Orbit: Zeff=   3.600
       Nuclear Spin-Spin: Gn=   0.000
       EPRNMR Input: 
       rho(0)=N f(grad)=N a(iso)=N a(dip)=N a(orb)=N sigma(nmr)=Y spin-spin(nmr)=all-N,DSO-N,PSO-N,FC-N,SD-N
   Nucleus:   1C 
       Hyperfine : Isotope=   13 I=   0.500 P= 134.188
       Quadrupole: Isotope=   13 I=   0.500 Q=   0.000
       Spin-Orbit: Zeff=   3.600
       Nuclear Spin-Spin: Gn=   0.000
       EPRNMR Input: 
       rho(0)=N f(grad)=N a(iso)=N a(dip)=N a(orb)=N sigma(nmr)=Y spin-spin(nmr)=all-N,DSO-N,PSO-N,FC-N,SD-N
   Nucleus:   2C 
       Hyperfine : Isotope=   13 I=   0.500 P= 134.188
       Quadrupole: Isotope=   13 I=   0.500 Q=   0.000
       Spin-Orbit: Zeff=   3.600
       Nuclear Spin-Spin: Gn=   0.000
       EPRNMR Input: 
       rho(0)=N f(grad)=N a(iso)=N a(dip)=N a(orb)=N sigma(nmr)=Y spin-spin(nmr)=all-N,DSO-N,PSO-N,FC-N,SD-N
   Nucleus:   3C 
       Hyperfine : Isotope=   13 I=   0.500 P= 134.188
       Quadrupole: Isotope=   13 I=   0.500 Q=   0.000
       Spin-Orbit: Zeff=   3.600
       Nuclear Spin-Spin: Gn=   0.000
       EPRNMR Input: 
       rho(0)=N f(grad)=N a(iso)=N a(dip)=N a(orb)=N sigma(nmr)=Y spin-spin(nmr)=all-N,DSO-N,PSO-N,FC-N,SD-N
   Nucleus:   4N 
       Hyperfine : Isotope=   14 I=   1.000 P=  38.571
       Quadrupole: Isotope=   14 I=   1.000 Q=   0.020
       Spin-Orbit: Zeff=   4.550
       Nuclear Spin-Spin: Gn=   0.000
       EPRNMR Input: 
       rho(0)=N f(grad)=N a(iso)=N a(dip)=N a(orb)=N sigma(nmr)=Y spin-spin(nmr)=all-N,DSO-N,PSO-N,FC-N,SD-N
   Nucleus:   5O 
       Hyperfine : Isotope=   17 I=   2.500 P= -72.357
       Quadrupole: Isotope=   17 I=   2.500 Q=  -0.026
       Spin-Orbit: Zeff=   5.600
       Nuclear Spin-Spin: Gn=   0.000
       EPRNMR Input: 
       rho(0)=N f(grad)=N a(iso)=N a(dip)=N a(orb)=N sigma(nmr)=Y spin-spin(nmr)=all-N,DSO-N,PSO-N,FC-N,SD-N
   Nucleus:   6O 
       Hyperfine : Isotope=   17 I=   2.500 P= -72.357
       Quadrupole: Isotope=   17 I=   2.500 Q=  -0.026
       Spin-Orbit: Zeff=   5.600
       Nuclear Spin-Spin: Gn=   0.000
       EPRNMR Input: 
       rho(0)=N f(grad)=N a(iso)=N a(dip)=N a(orb)=N sigma(nmr)=Y spin-spin(nmr)=all-N,DSO-N,PSO-N,FC-N,SD-N
   Nucleus:   7H 
       Hyperfine : Isotope=    1 I=   0.500 P= 533.552
       Quadrupole: Isotope=    2 I=   1.000 Q=   0.003
       Spin-Orbit: Zeff=   1.000
       Nuclear Spin-Spin: Gn=   0.000
       EPRNMR Input: 
       rho(0)=N f(grad)=N a(iso)=N a(dip)=N a(orb)=N sigma(nmr)=Y spin-spin(nmr)=all-N,DSO-N,PSO-N,FC-N,SD-N
   Nucleus:   8H 
       Hyperfine : Isotope=    1 I=   0.500 P= 533.552
       Quadrupole: Isotope=    2 I=   1.000 Q=   0.003
       Spin-Orbit: Zeff=   1.000
       Nuclear Spin-Spin: Gn=   0.000
       EPRNMR Input: 
       rho(0)=N f(grad)=N a(iso)=N a(dip)=N a(orb)=N sigma(nmr)=Y spin-spin(nmr)=all-N,DSO-N,PSO-N,FC-N,SD-N
   Nucleus:   9H 
       Hyperfine : Isotope=    1 I=   0.500 P= 533.552
       Quadrupole: Isotope=    2 I=   1.000 Q=   0.003
       Spin-Orbit: Zeff=   1.000
       Nuclear Spin-Spin: Gn=   0.000
       EPRNMR Input: 
       rho(0)=N f(grad)=N a(iso)=N a(dip)=N a(orb)=N sigma(nmr)=Y spin-spin(nmr)=all-N,DSO-N,PSO-N,FC-N,SD-N
   Nucleus:  10H 
       Hyperfine : Isotope=    1 I=   0.500 P= 533.552
       Quadrupole: Isotope=    2 I=   1.000 Q=   0.003
       Spin-Orbit: Zeff=   1.000
       Nuclear Spin-Spin: Gn=   0.000
       EPRNMR Input: 
       rho(0)=N f(grad)=N a(iso)=N a(dip)=N a(orb)=N sigma(nmr)=Y spin-spin(nmr)=all-N,DSO-N,PSO-N,FC-N,SD-N
   Nucleus:  11H 
       Hyperfine : Isotope=    1 I=   0.500 P= 533.552
       Quadrupole: Isotope=    2 I=   1.000 Q=   0.003
       Spin-Orbit: Zeff=   1.000
       Nuclear Spin-Spin: Gn=   0.000
       EPRNMR Input: 
       rho(0)=N f(grad)=N a(iso)=N a(dip)=N a(orb)=N sigma(nmr)=Y spin-spin(nmr)=all-N,DSO-N,PSO-N,FC-N,SD-N
Forming RHS of the CP-SCF equations         ... 
Calculating right hand sides for GIAO treatment        ... 
  Entering RightHandSide GIAO. ScalHFX=    0.0000 NeedHFX=0
     -> 1-electron GIAO integrals will be done analytically
     -> RI used in SCF. Same chosen for GIAO calculation.
     Making grid for GIAO integrations   ...

GRID GIAO
---------

General Integration Accuracy     IntAcc      ... 4.388
Radial Grid Type                 RadialGrid  ... OptM3 with GC (2021)
Angular Grid (max. ang.)         AngularGrid ... 4 (Lebedev-302)
Angular grid pruning method      GridPruning ... 4 (adaptive)
Weight generation scheme         WeightScheme... Becke
Basis function cutoff            BFCut       ... 1.0000e-10
Integration weight cutoff        WCut        ... 1.0000e-14
Angular grids for H and He will be reduced by one unit
Partially contracted basis set               ... off
Rotationally invariant grid construction     ... off

Total number of grid points                  ...    59055
Total number of batches                      ...      929
Average number of points per batch           ...       63
Average number of grid points per atom       ...     4921

  One-electron GIAO integrals (SHARK)     ... done
  Calculating G(B)[P]                     ... (RI-J: SHARK-ok) (copy J to G-ok) => dG/dB done
  DFT XC-terms                            ... done
  Extracting occupied and virtual blocks  ... 
  Operator  0  NO=  26 NV= 296 
  Transforming and RHS contribution       ... done
  Adding eps_i * S(B)_ai terms            ... done

  GIAO profiling information: 
    Total GIAO time               ...      17.7 sec
       GIAO 1-electron integrals  ...       0.1 sec (  0.4%)
       GIAO RI-J                  ...       3.7 sec ( 20.7%)
       GIAO XC-terms              ...      13.2 sec ( 74.5%)
       Right hand side assembly   ...       0.0 sec (  0.1%)

  GIAO right hand side done


Forming final perturbed densities           ... done
Transforming perturbed density to AO basis  ... done

Magnetic field perturbation calculated in 17.665 sec

---------------
CHEMICAL SHIFTS
---------------

Note: using conversion factor for au to ppm alpha^2/2 =   26.625677252 
GIAO: Analytic para- and diamagnetic shielding integrals (SHARK)       ...done
 --------------
 Nucleus   0C :
 --------------

Diamagnetic contribution to the shielding tensor (ppm) : 
           243.593          2.693        11.441
             2.856        237.787        -1.502
            10.900         -1.935       239.092

Paramagnetic contribution to the shielding tensor (ppm): 
          -104.314         -3.951        -0.216
            -2.976        -77.854       -14.839
            -0.373        -15.185       -94.899

Total shielding tensor (ppm): 
           139.279         -1.258        11.225
            -0.120        159.932       -16.341
            10.527        -17.120       144.193


 Diagonalized sT*s matrix:
 
 sDSO           228.878          249.956          241.638  iso=     240.157
 sPSO          -102.051         -105.274          -69.744  iso=     -92.356
        ---------------  ---------------  ---------------
 Total          126.827          144.683          171.894  iso=     147.801

 --------------
 Nucleus   1C :
 --------------

Diamagnetic contribution to the shielding tensor (ppm) : 
           254.860          0.839        -0.871
             4.717        260.601         1.682
            -2.822         -1.755       253.614

Paramagnetic contribution to the shielding tensor (ppm): 
          -109.239         15.624         8.781
            10.639        -98.211        -5.762
            11.242         -1.399      -117.792

Total shielding tensor (ppm): 
           145.622         16.464         7.909
            15.356        162.390        -4.080
             8.420         -3.154       135.822


 Diagonalized sT*s matrix:
 
 sDSO           255.330          252.305          261.440  iso=     256.359
 sPSO          -128.283         -107.545          -89.414  iso=    -108.414
        ---------------  ---------------  ---------------
 Total          127.048          144.759          172.026  iso=     147.944

 --------------
 Nucleus   2C :
 --------------

Diamagnetic contribution to the shielding tensor (ppm) : 
           267.595          1.654        -2.115
           -11.164        265.365        -7.635
             4.432          3.180       270.387

Paramagnetic contribution to the shielding tensor (ppm): 
          -236.207         17.114       -37.134
            19.861       -303.358        66.105
           -38.222         63.936      -265.241

Total shielding tensor (ppm): 
            31.388         18.767       -39.249
             8.696        -37.993        58.470
           -33.790         67.117         5.146


 Diagonalized sT*s matrix:
 
 sDSO           264.095          268.646          270.605  iso=     267.782
 sPSO          -241.887         -201.959         -360.959  iso=    -268.269
        ---------------  ---------------  ---------------
 Total           22.208           66.687          -90.354  iso=      -0.486

 --------------
 Nucleus   3C :
 --------------

Diamagnetic contribution to the shielding tensor (ppm) : 
           232.821         12.175        40.132
             2.618        237.715       -25.706
            43.607        -17.459       223.788

Paramagnetic contribution to the shielding tensor (ppm): 
          -231.375        -79.972       -61.586
           -59.883       -286.033        32.904
           -70.242         16.390      -178.450

Total shielding tensor (ppm): 
             1.445        -67.798       -21.453
           -57.265        -48.319         7.198
           -26.634         -1.069        45.338


 Diagonalized sT*s matrix:
 
 sDSO           272.719          178.620          242.984  iso=     231.441
 sPSO          -250.482         -111.992         -333.385  iso=    -231.953
        ---------------  ---------------  ---------------
 Total           22.237           66.628          -90.400  iso=      -0.512

 --------------
 Nucleus   4N :
 --------------

Diamagnetic contribution to the shielding tensor (ppm) : 
           319.865          5.686        13.577
            -6.129        327.879       -19.534
            18.587         -6.518       319.340

Paramagnetic contribution to the shielding tensor (ppm): 
          -248.935        -24.903       -34.903
           -14.059       -313.674        47.467
           -39.675         33.366      -243.137

Total shielding tensor (ppm): 
            70.929        -19.217       -21.326
           -20.188         14.205        27.932
           -21.088         26.848        76.203


 Diagonalized sT*s matrix:
 
 sDSO           332.373          334.487          300.224  iso=     322.361
 sPSO          -330.498         -282.116         -193.131  iso=    -268.582
        ---------------  ---------------  ---------------
 Total            1.874           52.371          107.092  iso=      53.779

 --------------
 Nucleus   5O :
 --------------

Diamagnetic contribution to the shielding tensor (ppm) : 
           441.339         -6.456       -22.462
           -11.053        409.060        19.617
           -19.245         24.323       441.288

Paramagnetic contribution to the shielding tensor (ppm): 
          -622.437       -173.563      -322.782
          -115.612       -577.179       114.941
          -351.040         65.160      -471.101

Total shielding tensor (ppm): 
          -181.098       -180.020      -345.244
          -126.665       -168.118       134.558
          -370.286         89.483       -29.813


 Diagonalized sT*s matrix:
 
 sDSO           398.118          470.117          423.451  iso=     430.562
 sPSO          -626.338         -141.633         -902.745  iso=    -556.906
        ---------------  ---------------  ---------------
 Total         -228.220          328.484         -479.294  iso=    -126.343

 --------------
 Nucleus   6O :
 --------------

Diamagnetic contribution to the shielding tensor (ppm) : 
           356.533         18.853        73.299
            10.123        365.440       -43.126
            75.476        -34.082       340.913

Paramagnetic contribution to the shielding tensor (ppm): 
          -527.720        -91.557      -452.383
          -135.870       -529.004       172.674
          -426.936        207.150      -385.290

Total shielding tensor (ppm): 
          -171.188        -72.704      -379.084
          -125.747       -163.564       129.548
          -351.459        173.068       -44.377


 Diagonalized sT*s matrix:
 
 sDSO           376.666          259.796          426.423  iso=     354.295
 sPSO          -604.883           68.765         -905.896  iso=    -480.671
        ---------------  ---------------  ---------------
 Total         -228.216          328.561         -479.473  iso=    -126.376

 --------------
 Nucleus   7H :
 --------------

Diamagnetic contribution to the shielding tensor (ppm) : 
            41.130          4.978         9.018
             6.797          9.290        -1.435
           -11.279         -0.506         8.770

Paramagnetic contribution to the shielding tensor (ppm): 
            -8.526         -3.486        -9.649
            -4.630         16.562         0.443
             9.584         -1.456        19.438

Total shielding tensor (ppm): 
            32.604          1.492        -0.632
             2.166         25.852        -0.992
            -1.695         -1.963        28.208


 Diagonalized sT*s matrix:
 
 sDSO             7.793           11.290           40.107  iso=      19.730
 sPSO            17.155           16.926           -6.606  iso=       9.158
        ---------------  ---------------  ---------------
 Total           24.948           28.215           33.500  iso=      28.888

 --------------
 Nucleus   8H :
 --------------

Diamagnetic contribution to the shielding tensor (ppm) : 
            10.456          0.426         0.675
             8.916         19.585        20.277
            15.832          9.565        28.405

Paramagnetic contribution to the shielding tensor (ppm): 
            16.413         -1.676         0.928
            -8.810         10.713       -16.405
           -14.150         -6.378         1.054

Total shielding tensor (ppm): 
            26.869         -1.250         1.604
             0.107         30.298         3.872
             1.682          3.186        29.459


 Diagonalized sT*s matrix:
 
 sDSO             6.940           11.193           40.313  iso=      19.482
 sPSO            18.004           16.986           -6.811  iso=       9.393
        ---------------  ---------------  ---------------
 Total           24.944           28.180           33.502  iso=      28.875

 --------------
 Nucleus   9H :
 --------------

Diamagnetic contribution to the shielding tensor (ppm) : 
            31.115         -8.733       -15.052
             4.471         50.739         7.505
            -1.534         -0.891        41.169

Paramagnetic contribution to the shielding tensor (ppm): 
            -0.616          5.984        16.282
            -8.232        -20.757        -7.048
             2.667          2.536       -14.993

Total shielding tensor (ppm): 
            30.499         -2.748         1.230
            -3.761         29.982         0.457
             1.134          1.644        26.175


 Diagonalized sT*s matrix:
 
 sDSO            43.686           37.828           41.509  iso=      41.008
 sPSO           -18.736           -9.630           -8.001  iso=     -12.122
        ---------------  ---------------  ---------------
 Total           24.950           28.198           33.508  iso=      28.886

 --------------
 Nucleus  10H :
 --------------

Diamagnetic contribution to the shielding tensor (ppm) : 
            40.768          0.202        -2.163
             0.632         44.823        -1.774
           -22.464         -5.607        37.933

Paramagnetic contribution to the shielding tensor (ppm): 
           -13.030          1.533         1.438
             0.099        -19.076        -0.026
            22.816          4.294        -4.756

Total shielding tensor (ppm): 
            27.738          1.735        -0.725
             0.732         25.747        -1.800
             0.353         -1.313        33.177


 Diagonalized sT*s matrix:
 
 sDSO            44.207           38.029           41.287  iso=      41.175
 sPSO           -19.268           -9.828           -7.766  iso=     -12.287
        ---------------  ---------------  ---------------
 Total           24.939           28.201           33.521  iso=      28.887

 --------------
 Nucleus  11H :
 --------------

Diamagnetic contribution to the shielding tensor (ppm) : 
            24.538          4.192         1.190
            -2.324         41.363       -12.996
             4.666         -6.250        27.778

Paramagnetic contribution to the shielding tensor (ppm): 
            -0.675         -3.884        -1.874
             2.588        -15.244        12.434
            -5.360          5.646        -3.576

Total shielding tensor (ppm): 
            23.863          0.308        -0.684
             0.264         26.119        -0.562
            -0.694         -0.604        24.202


 Diagonalized sT*s matrix:
 
 sDSO            28.181           20.510           44.988  iso=      31.226
 sPSO            -4.866            3.986          -18.616  iso=      -6.498
        ---------------  ---------------  ---------------
 Total           23.316           24.496           26.372  iso=      24.728



--------------------------------
CHEMICAL SHIELDING SUMMARY (ppm)
--------------------------------


  Nucleus  Element    Isotropic     Anisotropy
  -------  -------  ------------   ------------
      0       C          147.801         36.140 
      1       C          147.944         36.123 
      2       C           -0.486       -134.802 
      3       C           -0.512       -134.833 
      4       N           53.779         79.969 
      5       O         -126.343       -529.425 
      6       O         -126.376       -529.645 
      7       H           28.888          6.919 
      8       H           28.875          6.940 
      9       H           28.886          6.934 
     10       H           28.887          6.951 
     11       H           24.728          2.466 



Maximum memory used throughout the entire EPRNMR-calculation: 118.6 MB

Timings for individual modules:

Sum of individual times         ...       54.550 sec (=   0.909 min)
GTO integral calculation        ...        0.513 sec (=   0.009 min)   0.9 %
SCF iterations                  ...       34.500 sec (=   0.575 min)  63.2 %
EPR/NMR calculation             ...       19.537 sec (=   0.326 min)  35.8 %
                             ****ORCA TERMINATED NORMALLY****
TOTAL RUN TIME: 0 days 0 hours 0 minutes 54 seconds 825 msec
