
                                 *****************
                                 * O   R   C   A *
                                 *****************

                                            #,                                       
                                            ###                                      
                                            ####                                     
                                            #####                                    
                                            ######                                   
                                           ########,                                 
                                     ,,################,,,,,                         
                               ,,#################################,,                 
                          ,,##########################################,,             
                       ,#########################################, ''#####,          
                    ,#############################################,,   '####,        
                  ,##################################################,,,,####,       
                ,###########''''           ''''###############################       
              ,#####''   ,,,,##########,,,,          '''####'''          '####       
            ,##' ,,,,###########################,,,                        '##       
           ' ,,###''''                  '''############,,,                           
         ,,##''                                '''############,,,,        ,,,,,,###''
      ,#''                                            '''#######################'''  
     '                                                          ''''####''''         
             ,#######,   #######,   ,#######,      ##                                
            ,#'     '#,  ##    ##  ,#'     '#,    #''#        ######   ,####,        
            ##       ##  ##   ,#'  ##            #'  '#       #        #'  '#        
            ##       ##  #######   ##           ,######,      #####,   #    #        
            '#,     ,#'  ##    ##  '#,     ,#' ,#      #,         ##   #,  ,#        
             '#######'   ##     ##  '#######'  #'      '#     #####' # '####'        



                  #######################################################
                  #                        -***-                        #
                  #          Department of theory and spectroscopy      #
                  #    Directorship and core code : Frank Neese         #
                  #        Max Planck Institute fuer Kohlenforschung    #
                  #                Kaiser Wilhelm Platz 1               #
                  #                 D-45470 Muelheim/Ruhr               #
                  #                      Germany                        #
                  #                                                     #
                  #                  All rights reserved                #
                  #                        -***-                        #
                  #######################################################


                         Program Version 5.0.2 -  RELEASE  -


 With contributions from (in alphabetic order):
   Daniel Aravena         : Magnetic Suceptibility
   Michael Atanasov       : Ab Initio Ligand Field Theory (pilot matlab implementation)
   Alexander A. Auer      : GIAO ZORA, VPT2 properties, NMR spectrum
   Ute Becker             : Parallelization
   Giovanni Bistoni       : ED, misc. LED, open-shell LED, HFLD
   Martin Brehm           : Molecular dynamics
   Dmytro Bykov           : SCF Hessian
   Vijay G. Chilkuri      : MRCI spin determinant printing, contributions to CSF-ICE
   Dipayan Datta          : RHF DLPNO-CCSD density
   Achintya Kumar Dutta   : EOM-CC, STEOM-CC
   Dmitry Ganyushin       : Spin-Orbit,Spin-Spin,Magnetic field MRCI
   Miquel Garcia          : C-PCM and meta-GGA Hessian, CC/C-PCM, Gaussian charge scheme
   Yang Guo               : DLPNO-NEVPT2, F12-NEVPT2, CIM, IAO-localization
   Andreas Hansen         : Spin unrestricted coupled pair/coupled cluster methods
   Benjamin Helmich-Paris : MC-RPA, TRAH-SCF, COSX integrals
   Lee Huntington         : MR-EOM, pCC
   Robert Izsak           : Overlap fitted RIJCOSX, COSX-SCS-MP3, EOM
   Marcus Kettner         : VPT2
   Christian Kollmar      : KDIIS, OOCD, Brueckner-CCSD(T), CCSD density, CASPT2, CASPT2-K
   Simone Kossmann        : Meta GGA functionals, TD-DFT gradient, OOMP2, MP2 Hessian
   Martin Krupicka        : Initial AUTO-CI
   Lucas Lang             : DCDCAS
   Marvin Lechner         : AUTO-CI (C++ implementation), FIC-MRCC
   Dagmar Lenk            : GEPOL surface, SMD
   Dimitrios Liakos       : Extrapolation schemes; Compound Job, initial MDCI parallelization
   Dimitrios Manganas     : Further ROCIS development; embedding schemes
   Dimitrios Pantazis     : SARC Basis sets
   Anastasios Papadopoulos: AUTO-CI, single reference methods and gradients
   Taras Petrenko         : DFT Hessian,TD-DFT gradient, ASA, ECA, R-Raman, ABS, FL, XAS/XES, NRVS
   Peter Pinski           : DLPNO-MP2, DLPNO-MP2 Gradient
   Christoph Reimann      : Effective Core Potentials
   Marius Retegan         : Local ZFS, SOC
   Christoph Riplinger    : Optimizer, TS searches, QM/MM, DLPNO-CCSD(T), (RO)-DLPNO pert. Triples
   Tobias Risthaus        : Range-separated hybrids, TD-DFT gradient, RPA, STAB
   Michael Roemelt        : Original ROCIS implementation
   Masaaki Saitow         : Open-shell DLPNO-CCSD energy and density
   Barbara Sandhoefer     : DKH picture change effects
   Avijit Sen             : IP-ROCIS
   Kantharuban Sivalingam : CASSCF convergence, NEVPT2, FIC-MRCI
   Bernardo de Souza      : ESD, SOC TD-DFT
   Georgi Stoychev        : AutoAux, RI-MP2 NMR, DLPNO-MP2 response
   Willem Van den Heuvel  : Paramagnetic NMR
   Boris Wezisla          : Elementary symmetry handling
   Frank Wennmohs         : Technical directorship


 We gratefully acknowledge several colleagues who have allowed us to
 interface, adapt or use parts of their codes:
   Stefan Grimme, W. Hujo, H. Kruse, P. Pracht,  : VdW corrections, initial TS optimization,
                  C. Bannwarth, S. Ehlert          DFT functionals, gCP, sTDA/sTD-DF
   Ed Valeev, F. Pavosevic, A. Kumar             : LibInt (2-el integral package), F12 methods
   Garnet Chan, S. Sharma, J. Yang, R. Olivares  : DMRG
   Ulf Ekstrom                                   : XCFun DFT Library
   Mihaly Kallay                                 : mrcc  (arbitrary order and MRCC methods)
   Jiri Pittner, Ondrej Demel                    : Mk-CCSD
   Frank Weinhold                                : gennbo (NPA and NBO analysis)
   Christopher J. Cramer and Donald G. Truhlar   : smd solvation model
   Lars Goerigk                                  : TD-DFT with DH, B97 family of functionals
   V. Asgeirsson, H. Jonsson                     : NEB implementation
   FAccTs GmbH                                   : IRC, NEB, NEB-TS, DLPNO-Multilevel, CI-OPT
                                                   MM, QMMM, 2- and 3-layer-ONIOM, Crystal-QMMM,
                                                   LR-CPCM, SF, NACMEs, symmetry and pop. for TD-DFT,
                                                   nearIR, NL-DFT gradient (VV10), updates on ESD,
                                                   ML-optimized integration grids
   S Lehtola, MJT Oliveira, MAL Marques          : LibXC Library
   Liviu Ungur et al                             : ANISO software


 Your calculation uses the libint2 library for the computation of 2-el integrals
 For citations please refer to: http://libint.valeyev.net

 Your ORCA version has been built with support for libXC version: 5.1.0
 For citations please refer to: https://tddft.org/programs/libxc/

 This ORCA versions uses:
   CBLAS   interface :  Fast vector & matrix operations
   LAPACKE interface :  Fast linear algebra routines
   SCALAPACK package :  Parallel linear algebra routines
   Shared memory     :  Shared parallel matrices
   BLAS/LAPACK       :  OpenBLAS 0.3.15  USE64BITINT DYNAMIC_ARCH NO_AFFINITY Haswell SINGLE_THREADED
        Core in use  :  Haswell
   Copyright (c) 2011-2014, The OpenBLAS Project




***************************************
The coordinates will be read from file: Ar-4.xyz
***************************************


Your calculation utilizes the geometrical counterpoise correction gCP
Please cite in your paper:
H.Kruse, S. Grimme J.Chem.Phys., 136, (2012), 154101 
   

Your calculation utilizes the atom-pairwise dispersion correction
with the Becke-Johnson damping scheme (D3BJ)
Cite in your paper:
S.Grimme, S.Ehrlich, L.Goerigk, J Comput Chem, (2011), 32, 1456–1465 
S.Grimme, J.Antony, S.Ehrlich and H.Krieg, J.Chem.Phys., 132, (2010), 154104 
   

Your calculation employs the composite approach PBEh-3c.
Please cite in your paper:
S. Grimme, J. G. Brandenburg, C. Bannwarth, A. Hansen J.Chem.Phys., 143, (2015), 054107 
   

================================================================================

----- Orbital basis set information -----
Your calculation utilizes the basis: def2-mSVP

----- AuxJ basis set information -----
Your calculation utilizes the auxiliary basis: def2/J
   F. Weigend, Phys. Chem. Chem. Phys. 8, 1057 (2006).

================================================================================
                                        WARNINGS
                       Please study these warnings very carefully!
================================================================================


WARNING: Geometry Optimization
  ===> : Switching off AutoStart
         For restart on a previous wavefunction, please use MOREAD

INFO   : the flag for use of the SHARK integral package has been found!

================================================================================
                                       INPUT FILE
================================================================================
NAME = OPT_Ar-4.inp
|  1> ! PBEh-3c Opt
|  2> 
|  3> *xyzfile 1 1 Ar-4.xyz
|  4> 
|  5>                          ****END OF INPUT****
================================================================================

                       *****************************
                       * Geometry Optimization Run *
                       *****************************

Geometry optimization settings:
Update method            Update   .... BFGS
Choice of coordinates    CoordSys .... Z-matrix Internals
Initial Hessian          InHess   .... Almoef's Model

Convergence Tolerances:
Energy Change            TolE     ....  5.0000e-06 Eh
Max. Gradient            TolMAXG  ....  3.0000e-04 Eh/bohr
RMS Gradient             TolRMSG  ....  1.0000e-04 Eh/bohr
Max. Displacement        TolMAXD  ....  4.0000e-03 bohr
RMS Displacement         TolRMSD  ....  2.0000e-03 bohr
Strict Convergence                ....  False
------------------------------------------------------------------------------
                        ORCA OPTIMIZATION COORDINATE SETUP
------------------------------------------------------------------------------

The optimization will be done in new redundant internal coordinates
Making redundant internal coordinates   ...  (new redundants) done
Evaluating the initial hessian          ...  (Almloef) done
Evaluating the coordinates              ...  done
Calculating the B-matrix                .... done
Calculating the G-matrix                .... done
Diagonalizing the G-matrix              .... done
The first mode is                       ....   27
The number of degrees of freedom        ....   36

    -----------------------------------------------------------------
                    Redundant Internal Coordinates


    -----------------------------------------------------------------
         Definition                    Initial Value    Approx d2E/dq
    -----------------------------------------------------------------
      1. B(C   1,C   0)                  1.3363         0.760960   
      2. B(C   2,C   0)                  1.4773         0.453319   
      3. B(C   3,C   2)                  1.3386         0.754718   
      4. B(C   4,C   3)                  1.4740         0.458824   
      5. B(C   5,C   4)                  1.3375         0.757743   
      6. B(C   6,C   5)                  1.4970         0.421737   
      7. B(C   6,C   1)                  1.4988         0.419012   
      8. B(H   7,C   3)                  1.0880         0.362720   
      9. B(H   8,C   4)                  1.0870         0.364119   
     10. B(H   9,C   5)                  1.0866         0.364653   
     11. B(H  10,C   6)                  1.1121         0.331980   
     12. B(H  11,C   1)                  1.0880         0.362738   
     13. B(H  12,C   0)                  1.0874         0.363619   
     14. B(H  13,C   2)                  1.0874         0.363615   
     15. A(C   2,C   0,H  12)          114.8249         0.335394   
     16. A(C   1,C   0,C   2)          129.0210         0.425713   
     17. A(C   1,C   0,H  12)          116.1541         0.366043   
     18. A(C   0,C   1,C   6)          128.4904         0.419769   
     19. A(C   6,C   1,H  11)          115.1538         0.330912   
     20. A(C   0,C   1,H  11)          116.3558         0.365891   
     21. A(C   3,C   2,H  13)          116.0922         0.365526   
     22. A(C   0,C   2,H  13)          114.5080         0.335394   
     23. A(C   0,C   2,C   3)          129.3998         0.425086   
     24. A(C   2,C   3,C   4)          129.3329         0.426006   
     25. A(C   4,C   3,H   7)          114.3270         0.335930   
     26. A(C   2,C   3,H   7)          116.3401         0.365372   
     27. A(C   5,C   4,H   8)          116.1601         0.365864   
     28. A(C   3,C   4,H   8)          114.9037         0.336145   
     29. A(C   3,C   4,C   5)          128.9363         0.426311   
     30. A(C   6,C   5,H   9)          115.2546         0.331556   
     31. A(C   4,C   5,H   9)          116.0248         0.365956   
     32. A(C   4,C   5,C   6)          128.7207         0.419937   
     33. A(C   5,C   6,H  10)          116.9179         0.326457   
     34. A(C   1,C   6,H  10)          116.9830         0.326109   
     35. A(C   1,C   6,C   5)          126.0991         0.378408   
     36. D(C   6,C   1,C   0,C   2)      0.0013         0.041413   
     37. D(H  11,C   1,C   0,C   2)   -179.9997         0.041413   
     38. D(C   6,C   1,C   0,H  12)   -179.9998         0.041413   
     39. D(H  11,C   1,C   0,H  12)     -0.0007         0.041413   
     40. D(C   3,C   2,C   0,H  12)    179.9999         0.014004   
     41. D(H  13,C   2,C   0,C   1)    179.9994         0.014004   
     42. D(H  13,C   2,C   0,H  12)      0.0005         0.014004   
     43. D(C   3,C   2,C   0,C   1)     -0.0011         0.014004   
     44. D(H   7,C   3,C   2,H  13)     -0.0005         0.040671   
     45. D(H   7,C   3,C   2,C   0)   -179.9999         0.040671   
     46. D(C   4,C   3,C   2,H  13)   -179.9998         0.040671   
     47. D(C   4,C   3,C   2,C   0)      0.0008         0.040671   
     48. D(H   8,C   4,C   3,C   2)   -179.9999         0.014342   
     49. D(C   5,C   4,C   3,H   7)    179.9997         0.014342   
     50. D(C   5,C   4,C   3,C   2)     -0.0010         0.014342   
     51. D(H   8,C   4,C   3,H   7)      0.0007         0.014342   
     52. D(H   9,C   5,C   4,H   8)     -0.0006         0.041030   
     53. D(H   9,C   5,C   4,C   3)   -179.9995         0.041030   
     54. D(C   6,C   5,C   4,H   8)    180.0000         0.041030   
     55. D(C   6,C   5,C   4,C   3)      0.0011         0.041030   
     56. D(H  10,C   6,C   5,H   9)      0.0001         0.012169   
     57. D(C   1,C   6,C   5,H   9)   -179.9999         0.012169   
     58. D(C   1,C   6,C   5,C   4)     -0.0004         0.012169   
     59. D(H  10,C   6,C   1,H  11)      0.0003         0.012018   
     60. D(H  10,C   6,C   1,C   0)    179.9994         0.012018   
     61. D(H  10,C   6,C   5,C   4)    179.9995         0.012169   
     62. D(C   5,C   6,C   1,H  11)   -179.9998         0.012018   
     63. D(C   5,C   6,C   1,C   0)     -0.0007         0.012018   
    -----------------------------------------------------------------

Number of atoms                         .... 14
Number of degrees of freedom            .... 63

         *************************************************************
         *                GEOMETRY OPTIMIZATION CYCLE   1            *
         *************************************************************
---------------------------------
CARTESIAN COORDINATES (ANGSTROEM)
---------------------------------
  C      3.499510  -16.976810   -3.084050
  C      2.248080  -17.136770   -2.643460
  C      4.279750  -15.731680   -3.236990
  C      3.924390  -14.468470   -2.972790
  C      2.648490  -13.946550   -2.450780
  C      1.540080  -14.616390   -2.116700
  C      1.281730  -16.089610   -2.178820
  H      4.675280  -13.705220   -3.166220
  H      2.613210  -12.867660   -2.323210
  H      0.712220  -14.015610   -1.750140
  H      0.278740  -16.439220   -1.849240
  H      1.872880  -18.157640   -2.614780
  H      4.025570  -17.883580   -3.372780
  H      5.287090  -15.874850   -3.620540

----------------------------
CARTESIAN COORDINATES (A.U.)
----------------------------
  NO LB      ZA    FRAG     MASS         X           Y           Z
   0 C     6.0000    0    12.011    6.613116  -32.081522   -5.828010
   1 C     6.0000    0    12.011    4.248256  -32.383802   -4.995415
   2 C     6.0000    0    12.011    8.087555  -29.728567   -6.117025
   3 C     6.0000    0    12.011    7.416022  -27.341446   -5.617759
   4 C     6.0000    0    12.011    5.004921  -26.355160   -4.631303
   5 C     6.0000    0    12.011    2.910329  -27.620974   -3.999983
   6 C     6.0000    0    12.011    2.422119  -30.404957   -4.117373
   7 H     1.0000    0     1.008    8.834999  -25.899112   -5.983289
   8 H     1.0000    0     1.008    4.938251  -24.316353   -4.390231
   9 H     1.0000    0     1.008    1.345901  -26.485664   -3.307285
  10 H     1.0000    0     1.008    0.526742  -31.065624   -3.494557
  11 H     1.0000    0     1.008    3.539230  -34.312967   -4.941218
  12 H     1.0000    0     1.008    7.607225  -33.795068   -6.373631
  13 H     1.0000    0     1.008    9.991152  -29.999119   -6.841829

--------------------------------
INTERNAL COORDINATES (ANGSTROEM)
--------------------------------
 C      0   0   0     0.000000000000     0.00000000     0.00000000
 C      1   0   0     1.336332217153     0.00000000     0.00000000
 C      1   2   0     1.477333346980   129.02095823     0.00000000
 C      3   1   2     1.338574567852   129.39981294     0.00000000
 C      4   3   1     1.474047399679   129.33285933     0.00000000
 C      5   4   3     1.337485626128   128.93625238     0.00000000
 C      6   5   4     1.496990576223   128.72066141     0.00000000
 H      4   3   1     1.088026433273   116.34010176   180.00012656
 H      5   4   3     1.086978571730   114.90366108   180.00005548
 H      6   5   4     1.086579505421   116.02475143   180.00048567
 H      7   6   5     1.112132666816   116.91792732   179.99948708
 H      2   1   3     1.088013391140   116.35578811   180.00034858
 H      1   2   3     1.087352734581   116.15410340   179.99894310
 H      3   1   2     1.087355566041   114.50800237   179.99944753

---------------------------
INTERNAL COORDINATES (A.U.)
---------------------------
 C      0   0   0     0.000000000000     0.00000000     0.00000000
 C      1   0   0     2.525301914354     0.00000000     0.00000000
 C      1   2   0     2.791755434302   129.02095823     0.00000000
 C      3   1   2     2.529539343072   129.39981294     0.00000000
 C      4   3   1     2.785545893812   129.33285933     0.00000000
 C      5   4   3     2.527481541439   128.93625238     0.00000000
 C      6   5   4     2.828902214122   128.72066141     0.00000000
 H      4   3   1     2.056071985352   116.34010176   180.00012656
 H      5   4   3     2.054091814010   114.90366108   180.00005548
 H      6   5   4     2.053337687976   116.02475143   180.00048567
 H      7   6   5     2.101626164870   116.91792732   179.99948708
 H      2   1   3     2.056047339294   116.35578811   180.00034858
 H      1   2   3     2.054798879328   116.15410340   179.99894310
 H      3   1   2     2.054804230012   114.50800237   179.99944753

---------------------
BASIS SET INFORMATION
---------------------
There are 2 groups of distinct atoms

 Group   1 Type C   : 8s4p1d contracted to 4s2p1d pattern {5111/31/1}
 Group   2 Type H   : 4s contracted to 2s pattern {31}

Atom   0C    basis set group =>   1
Atom   1C    basis set group =>   1
Atom   2C    basis set group =>   1
Atom   3C    basis set group =>   1
Atom   4C    basis set group =>   1
Atom   5C    basis set group =>   1
Atom   6C    basis set group =>   1
Atom   7H    basis set group =>   2
Atom   8H    basis set group =>   2
Atom   9H    basis set group =>   2
Atom  10H    basis set group =>   2
Atom  11H    basis set group =>   2
Atom  12H    basis set group =>   2
Atom  13H    basis set group =>   2
---------------------------------
AUXILIARY/J BASIS SET INFORMATION
---------------------------------
There are 2 groups of distinct atoms

 Group   1 Type C   : 12s5p4d2f1g contracted to 6s4p3d1f1g pattern {711111/2111/211/2/1}
 Group   2 Type H   : 5s2p1d contracted to 3s1p1d pattern {311/2/1}

Atom   0C    basis set group =>   1
Atom   1C    basis set group =>   1
Atom   2C    basis set group =>   1
Atom   3C    basis set group =>   1
Atom   4C    basis set group =>   1
Atom   5C    basis set group =>   1
Atom   6C    basis set group =>   1
Atom   7H    basis set group =>   2
Atom   8H    basis set group =>   2
Atom   9H    basis set group =>   2
Atom  10H    basis set group =>   2
Atom  11H    basis set group =>   2
Atom  12H    basis set group =>   2
Atom  13H    basis set group =>   2
------------------------------------------------------------------------------
                           ORCA GTO INTEGRAL CALCULATION
                           -- RI-GTO INTEGRALS CHOSEN --
------------------------------------------------------------------------------
------------------------------------------------------------------------------
                   ___                                                        
                  /   \      - P O W E R E D   B Y -                         
                 /     \                                                     
                 |  |  |   _    _      __       _____    __    __             
                 |  |  |  | |  | |    /  \     |  _  \  |  |  /  |          
                  \  \/   | |  | |   /    \    | | | |  |  | /  /          
                 / \  \   | |__| |  /  /\  \   | |_| |  |  |/  /          
                |  |  |   |  __  | /  /__\  \  |    /   |      \           
                |  |  |   | |  | | |   __   |  |    \   |  |\   \          
                \     /   | |  | | |  |  |  |  | |\  \  |  | \   \       
                 \___/    |_|  |_| |__|  |__|  |_| \__\ |__|  \__/        
                                                                              
                      - O R C A' S   B I G   F R I E N D -                    
                                      &                                       
                       - I N T E G R A L  F E E D E R -                       
                                                                              
 v1 FN, 2020, v2 2021                                                         
------------------------------------------------------------------------------


Reading SHARK input file OPT_Ar-4.SHARKINP.tmp ... ok
----------------------
SHARK INTEGRAL PACKAGE
----------------------

Number of atoms                             ...     14
Number of basis functions                   ...    119
Number of shells                            ...     63
Maximum angular momentum                    ...      2
Integral batch strategy                     ... SHARK/LIBINT Hybrid
RI-J (if used) integral strategy            ... SPLIT-RIJ (Revised 2003 algorithm where possible)
Printlevel                                  ...      1
Contraction scheme used                     ... SEGMENTED contraction
Coulomb Range Separation                    ... NOT USED
Exchange Range Separation                   ... NOT USED
Finite Nucleus Model                        ... NOT USED
Auxiliary Coulomb fitting basis             ... AVAILABLE
   # of basis functions in Aux-J            ...    420
   # of shells in Aux-J                     ...    140
   Maximum angular momentum in Aux-J        ...      4
Auxiliary J/K fitting basis                 ... NOT available
Auxiliary Correlation fitting basis         ... NOT available
Auxiliary 'external' fitting basis          ... NOT available
Integral threshold                          ...     2.500000e-11
Primitive cut-off                           ...     2.500000e-12
Primitive pair pre-selection threshold      ...     2.500000e-12

Calculating pre-screening integrals         ... done (  0.0 sec) Dimension = 63
Organizing shell pair data                  ... done (  0.0 sec)
Shell pair information
Total number of shell pairs                 ...      2016
Shell pairs after pre-screening             ...      1907
Total number of primitive shell pairs       ...      7252
Primitive shell pairs kept                  ...      5035
          la=0 lb=0:    794 shell pairs
          la=1 lb=0:    588 shell pairs
          la=1 lb=1:    105 shell pairs
          la=2 lb=0:    294 shell pairs
          la=2 lb=1:     98 shell pairs
          la=2 lb=2:     28 shell pairs

Calculating one electron integrals          ... done (  0.0 sec)
Calculating RI/J V-Matrix + Cholesky decomp.... done (  0.0 sec)
Calculating Nuclear repulsion               ... done (  0.0 sec) ENN=    255.236183875997 Eh

SHARK setup successfully completed in   0.3 seconds

Maximum memory used throughout the entire GTOINT-calculation: 15.3 MB
-------------------------------------------------------------------------------
                                 ORCA SCF
-------------------------------------------------------------------------------

------------
SCF SETTINGS
------------
Hamiltonian:
 Density Functional     Method          .... DFT(GTOs)
 Exchange Functional    Exchange        .... PBE
   PBE kappa parameter   XKappa         ....  1.024500
   PBE mue parameter    XMuePBE         ....  0.123457
 Correlation Functional Correlation     .... PBE
   PBE beta parameter  CBetaPBE         ....  0.030000
 LDA part of GGA corr.  LDAOpt          .... PW91-LDA
 Gradients option       PostSCFGGA      .... off
 Hybrid DFT is turned on
   Fraction HF Exchange ScalHFX         ....  0.420000
   Scaling of DF-GGA-X  ScalDFX         ....  0.580000
   Scaling of DF-GGA-C  ScalDFC         ....  1.000000
   Scaling of DF-LDA-C  ScalLDAC        ....  1.000000
   Perturbative correction              ....  0.000000
   Density functional embedding theory  .... OFF
 RI-approximation to the Coulomb term is turned on
   Number of AuxJ basis functions       .... 420
   RIJ-ON(X) (HFX calculated with O(N)) .... on
   Number of AuxJ basis functions       .... 420
   RIJ-COSX (HFX calculated with COS-X)).... on


General Settings:
 Integral files         IntName         .... OPT_Ar-4
 Hartree-Fock type      HFTyp           .... RHF
 Total Charge           Charge          ....    1
 Multiplicity           Mult            ....    1
 Number of Electrons    NEL             ....   48
 Basis Dimension        Dim             ....  119
 Nuclear Repulsion      ENuc            ....    255.2361838760 Eh

Convergence Acceleration:
 DIIS                   CNVDIIS         .... on
   Start iteration      DIISMaxIt       ....    12
   Startup error        DIISStart       ....  0.200000
   # of expansion vecs  DIISMaxEq       ....     5
   Bias factor          DIISBfac        ....   1.050
   Max. coefficient     DIISMaxC        ....  10.000
 Trust-Rad. Augm. Hess. CNVTRAH         .... auto
   Auto Start mean grad. ratio tolernc. ....  1.125000
   Auto Start start iteration           ....    20
   Auto Start num. interpolation iter.  ....    10
   Max. Number of Micro iterations      ....    16
   Max. Number of Macro iterations      .... Maxiter - #DIIS iter
   Number of Davidson start vectors     ....     2
   Converg. threshold I  (grad. norm)   ....   1.000e-05
   Converg. threshold II (energy diff.) ....   1.000e-08
   Grad. Scal. Fac. for Micro threshold ....   0.100
   Minimum threshold for Micro iter.    ....   0.010
   NR start threshold (gradient norm)   ....   0.001
   Initial trust radius                 ....   0.400
   Minimum AH scaling param. (alpha)    ....   1.000
   Maximum AH scaling param. (alpha)    .... 1000.000
   Orbital update algorithm             .... Taylor
   White noise on init. David. guess    .... on
   Maximum white noise                  ....   0.010
   Quad. conv. algorithm                .... NR
   COSX micro iterations for RIJONX calc.... off
 SOSCF                  CNVSOSCF        .... on
   Start iteration      SOSCFMaxIt      ....   150
   Startup grad/error   SOSCFStart      ....  0.003300
 Level Shifting         CNVShift        .... on
   Level shift para.    LevelShift      ....    0.2500
   Turn off err/grad.   ShiftErr        ....    0.0010
 Zerner damping         CNVZerner       .... off
 Static damping         CNVDamp         .... on
   Fraction old density DampFac         ....    0.7000
   Max. Damping (<1)    DampMax         ....    0.9800
   Min. Damping (>=0)   DampMin         ....    0.0000
   Turn off err/grad.   DampErr         ....    0.1000
 Fernandez-Rico         CNVRico         .... off

SCF Procedure:
 Maximum # iterations   MaxIter         ....   125
 SCF integral mode      SCFMode         .... Direct
   Integral package                     .... SHARK and LIBINT hybrid scheme
 Reset frequency        DirectResetFreq ....    20
 Integral Threshold     Thresh          ....  2.500e-11 Eh
 Primitive CutOff       TCut            ....  2.500e-12 Eh

Convergence Tolerance:
 Convergence Check Mode ConvCheckMode   .... Total+1el-Energy
 Convergence forced     ConvForced      .... 0
 Energy Change          TolE            ....  1.000e-08 Eh
 1-El. energy change                    ....  1.000e-05 Eh
 Orbital Gradient       TolG            ....  1.000e-05
 Orbital Rotation angle TolX            ....  1.000e-05
 DIIS Error             TolErr          ....  5.000e-07


Diagonalization of the overlap matrix:
Smallest eigenvalue                        ... 1.351e-03
Time for diagonalization                   ...    0.018 sec
Threshold for overlap eigenvalues          ... 1.000e-08
Number of eigenvalues below threshold      ... 0
Time for construction of square roots      ...    0.003 sec
Total time needed                          ...    0.021 sec

--------------------------------
INITIAL GUESS: MINIMAL BASIS EHT
--------------------------------
The minimal basis has 42 functions
EHT matrix was diagonalized
Basis set overlap was calculated now projecting the orbitals
Using GuessMode=FMatrix for the initial guess
C*T matrix was formed
Effective Fockian was calculated
Effective Fockian was diagonalized
Initial density was built
                      ------------------
                      INITIAL GUESS DONE
                      ------------------
-------------------
DFT GRID GENERATION
-------------------

General Integration Accuracy     IntAcc      ... 4.159
Radial Grid Type                 RadialGrid  ... OptM3 with GC (2021)
Angular Grid (max. ang.)         AngularGrid ... 3 (Lebedev-194)
Angular grid pruning method      GridPruning ... 4 (adaptive)
Weight generation scheme         WeightScheme... Becke
Basis function cutoff            BFCut       ... 1.0000e-11
Integration weight cutoff        WCut        ... 1.0000e-14
Angular grids for H and He will be reduced by one unit
Partially contracted basis set               ... off
Rotationally invariant grid construction     ... off

Total number of grid points                  ...    32903
Total number of batches                      ...      522
Average number of points per batch           ...       63
Average number of grid points per atom       ...     2350
Time for grid setup =    0.639 sec

--------------------
COSX GRID GENERATION
--------------------

GRIDX 1
-------
General Integration Accuracy     IntAcc      ... 3.816
Radial Grid Type                 RadialGrid  ... OptM3 with GC (2021)
Angular Grid (max. ang.)         AngularGrid ... 1 (Lebedev-50)
Angular grid pruning method      GridPruning ... 4 (adaptive)
Weight generation scheme         WeightScheme... Becke
Basis function cutoff            BFCut       ... 1.0000e-11
Integration weight cutoff        WCut        ... 1.0000e-14
Angular grids for H and He will be reduced by one unit
Partially contracted basis set               ... on
Rotationally invariant grid construction     ... off

Total number of grid points                  ...     8306
Total number of batches                      ...      135
Average number of points per batch           ...       61
Average number of grid points per atom       ...      593
UseSFitting                                  ... on

GRIDX 2
-------
General Integration Accuracy     IntAcc      ... 4.020
Radial Grid Type                 RadialGrid  ... OptM3 with GC (2021)
Angular Grid (max. ang.)         AngularGrid ... 2 (Lebedev-110)
Angular grid pruning method      GridPruning ... 4 (adaptive)
Weight generation scheme         WeightScheme... Becke
Basis function cutoff            BFCut       ... 1.0000e-11
Integration weight cutoff        WCut        ... 1.0000e-14
Angular grids for H and He will be reduced by one unit
Partially contracted basis set               ... on
Rotationally invariant grid construction     ... off

Total number of grid points                  ...    18045
Total number of batches                      ...      293
Average number of points per batch           ...       61
Average number of grid points per atom       ...     1289
UseSFitting                                  ... on

GRIDX 3
-------
General Integration Accuracy     IntAcc      ... 4.338
Radial Grid Type                 RadialGrid  ... OptM3 with GC (2021)
Angular Grid (max. ang.)         AngularGrid ... 3 (Lebedev-194)
Angular grid pruning method      GridPruning ... 4 (adaptive)
Weight generation scheme         WeightScheme... Becke
Basis function cutoff            BFCut       ... 1.0000e-11
Integration weight cutoff        WCut        ... 1.0000e-14
Angular grids for H and He will be reduced by one unit
Partially contracted basis set               ... on
Rotationally invariant grid construction     ... off

Total number of grid points                  ...    39660
Total number of batches                      ...      626
Average number of points per batch           ...       63
Average number of grid points per atom       ...     2833
UseSFitting                                  ... on

Time for X-Grid setup             =    0.954 sec

--------------
SCF ITERATIONS
--------------
ITER       Energy         Delta-E        Max-DP      RMS-DP      [F,P]     Damp
               ***  Starting incremental Fock matrix formation  ***
  0   -269.4029718805   0.000000000000 0.07066287  0.00519352  0.3963761 0.7000
  1   -269.5853676825  -0.182395801956 0.05013624  0.00382342  0.2814592 0.7000
                               ***Turning on DIIS***
  2   -269.7154312011  -0.130063518584 0.03626448  0.00281047  0.1991113 0.7000
  3   -269.8076903916  -0.092259190470 0.02768527  0.00217183  0.1405746 0.7000
  4   -269.8732371133  -0.065546721718 0.06821058  0.00535775  0.0984072 0.0000
                      *** Initiating the SOSCF procedure ***
                           *** Shutting down DIIS ***
                      *** Re-Reading the Fockian *** 
                      *** Removing any level shift *** 
ITER      Energy       Delta-E        Grad      Rot      Max-DP    RMS-DP
  5   -270.03035457  -0.1571174597  0.002003  0.002003  0.002728  0.000150
               *** Restarting incremental Fock matrix formation ***
  6   -270.03040203  -0.0000474567  0.001176  0.001284  0.001272  0.000057
  7   -270.03041108  -0.0000090509  0.000371  0.000360  0.000550  0.000024
  8   -270.03041334  -0.0000022575  0.000076  0.000224  0.000298  0.000007
  9   -270.03041338  -0.0000000387  0.000061  0.000110  0.000119  0.000004
 10   -270.03041346  -0.0000000855  0.000013  0.000043  0.000032  0.000001
 11   -270.03041346   0.0000000009  0.000011  0.000018  0.000014  0.000001
                  ***Gradient check signals convergence***
              ***Rediagonalizing the Fockian in SOSCF/NRSCF***

               *****************************************************
               *                     SUCCESS                       *
               *           SCF CONVERGED AFTER  12 CYCLES          *
               *****************************************************

Old exchange energy                            =    -16.092316440 Eh
New exchange energy                            =    -16.092301726 Eh
Exchange energy change after final integration =      0.000014714 Eh
Total energy after final integration           =   -270.030398750 Eh
Final COS-X integration done in                =     9.073 sec

----------------
TOTAL SCF ENERGY
----------------

Total Energy       :         -270.03039875 Eh           -7347.90071 eV

Components:
Nuclear Repulsion  :          255.23618388 Eh            6945.32966 eV
Electronic Energy  :         -525.26658263 Eh          -14293.23037 eV
One Electron Energy:         -857.94993387 Eh          -23346.00459 eV
Two Electron Energy:          332.68335124 Eh            9052.77422 eV
Max COSX asymmetry :            0.00000636 Eh               0.00017 eV

Virial components:
Potential Energy   :         -537.52344987 Eh          -14626.75668 eV
Kinetic Energy     :          267.49305111 Eh            7278.85597 eV
Virial Ratio       :            2.00948566


DFT components:
N(Alpha)           :       23.999965236491 electrons
N(Beta)            :       23.999965236491 electrons
N(Total)           :       47.999930472982 electrons
E(X)               :      -21.372024415209 Eh       
E(C)               :       -2.047126533783 Eh       
E(XC)              :      -23.419150948992 Eh       
DFET-embed. en.    :        0.000000000000 Eh       

---------------
SCF CONVERGENCE
---------------

  Last Energy change         ...   -3.2497e-09  Tolerance :   1.0000e-08
  Last MAX-Density change    ...    2.9976e-15  Tolerance :   1.0000e-07
  Last RMS-Density change    ...    6.2414e-17  Tolerance :   5.0000e-09
  Last Orbital Gradient      ...    1.7401e-06  Tolerance :   1.0000e-05
  Last Orbital Rotation      ...    2.7318e-06  Tolerance :   1.0000e-05

             **** THE GBW FILE WAS UPDATED (OPT_Ar-4.gbw) ****
             **** DENSITY OPT_Ar-4.scfp WAS UPDATED ****
             **** ENERGY FILE WAS UPDATED (OPT_Ar-4.en.tmp) ****
             **** THE GBW FILE WAS UPDATED (OPT_Ar-4.gbw) ****
             **** DENSITY OPT_Ar-4.scfp WAS UPDATED ****
----------------
ORBITAL ENERGIES
----------------

  NO   OCC          E(Eh)            E(eV) 
   0   2.0000     -10.718880      -291.6756 
   1   2.0000     -10.683748      -290.7196 
   2   2.0000     -10.683650      -290.7169 
   3   2.0000     -10.677772      -290.5570 
   4   2.0000     -10.677471      -290.5488 
   5   2.0000     -10.675561      -290.4968 
   6   2.0000     -10.674545      -290.4691 
   7   2.0000      -1.149001       -31.2659 
   8   2.0000      -1.085789       -29.5458 
   9   2.0000      -1.069963       -29.1152 
  10   2.0000      -0.959798       -26.1174 
  11   2.0000      -0.928406       -25.2632 
  12   2.0000      -0.805824       -21.9276 
  13   2.0000      -0.795335       -21.6422 
  14   2.0000      -0.790842       -21.5199 
  15   2.0000      -0.720875       -19.6160 
  16   2.0000      -0.709205       -19.2985 
  17   2.0000      -0.662850       -18.0371 
  18   2.0000      -0.650360       -17.6972 
  19   2.0000      -0.622059       -16.9271 
  20   2.0000      -0.619840       -16.8667 
  21   2.0000      -0.590433       -16.0665 
  22   2.0000      -0.536889       -14.6095 
  23   2.0000      -0.522474       -14.2173 
  24   0.0000      -0.287231        -7.8160 
  25   0.0000      -0.245377        -6.6771 
  26   0.0000      -0.065794        -1.7903 
  27   0.0000      -0.063515        -1.7283 
  28   0.0000      -0.047415        -1.2902 
  29   0.0000      -0.007252        -0.1973 
  30   0.0000      -0.005492        -0.1494 
  31   0.0000       0.017600         0.4789 
  32   0.0000       0.048431         1.3179 
  33   0.0000       0.057992         1.5780 
  34   0.0000       0.071596         1.9482 
  35   0.0000       0.074852         2.0368 
  36   0.0000       0.108044         2.9400 
  37   0.0000       0.182180         4.9574 
  38   0.0000       0.182709         4.9718 
  39   0.0000       0.194697         5.2980 
  40   0.0000       0.195345         5.3156 
  41   0.0000       0.268348         7.3021 
  42   0.0000       0.299329         8.1451 
  43   0.0000       0.350442         9.5360 
  44   0.0000       0.369690        10.0598 
  45   0.0000       0.373430        10.1615 
  46   0.0000       0.375170        10.2089 
  47   0.0000       0.378342        10.2952 
  48   0.0000       0.385290        10.4843 
  49   0.0000       0.438845        11.9416 
  50   0.0000       0.447422        12.1750 
  51   0.0000       0.456549        12.4233 
  52   0.0000       0.456799        12.4301 
  53   0.0000       0.466142        12.6844 
  54   0.0000       0.491166        13.3653 
  55   0.0000       0.519158        14.1270 
  56   0.0000       0.526158        14.3175 
  57   0.0000       0.716281        19.4910 
  58   0.0000       0.724958        19.7271 
  59   0.0000       0.752301        20.4712 
  60   0.0000       0.769913        20.9504 
  61   0.0000       0.783540        21.3212 
  62   0.0000       0.793652        21.5964 
  63   0.0000       0.801384        21.8068 
  64   0.0000       0.805756        21.9257 
  65   0.0000       0.822332        22.3768 
  66   0.0000       0.822940        22.3933 
  67   0.0000       0.866230        23.5713 
  68   0.0000       0.887265        24.1437 
  69   0.0000       0.919992        25.0343 
  70   0.0000       0.949445        25.8357 
  71   0.0000       0.979243        26.6466 
  72   0.0000       0.987454        26.8700 
  73   0.0000       1.081831        29.4381 
  74   0.0000       1.114662        30.3315 
  75   0.0000       1.137365        30.9493 
  76   0.0000       1.145048        31.1583 
  77   0.0000       1.215811        33.0839 
  78   0.0000       1.223567        33.2949 
  79   0.0000       1.254813        34.1452 
  80   0.0000       1.322290        35.9813 
  81   0.0000       1.333154        36.2770 
  82   0.0000       1.381102        37.5817 
  83   0.0000       1.404651        38.2225 
  84   0.0000       1.517558        41.2949 
  85   0.0000       1.545639        42.0590 
  86   0.0000       1.658403        45.1274 
  87   0.0000       1.725402        46.9506 
  88   0.0000       1.788189        48.6591 
  89   0.0000       1.790029        48.7092 
  90   0.0000       1.825539        49.6754 
  91   0.0000       1.869957        50.8841 
  92   0.0000       1.888362        51.3849 
  93   0.0000       1.915845        52.1328 
  94   0.0000       1.939083        52.7651 
  95   0.0000       1.958276        53.2874 
  96   0.0000       1.999485        54.4088 
  97   0.0000       2.032554        55.3086 
  98   0.0000       2.183618        59.4193 
  99   0.0000       2.200038        59.8661 
 100   0.0000       2.266449        61.6732 
 101   0.0000       2.279857        62.0381 
 102   0.0000       2.381918        64.8153 
 103   0.0000       2.388861        65.0042 
 104   0.0000       2.445111        66.5348 
 105   0.0000       2.470478        67.2251 
 106   0.0000       2.518448        68.5304 
 107   0.0000       2.541040        69.1452 
 108   0.0000       2.557817        69.6017 
 109   0.0000       2.837738        77.2188 
 110   0.0000       3.025211        82.3202 
 111   0.0000       3.108872        84.5967 
 112   0.0000      12.992884       353.5543 
 113   0.0000      13.295886       361.7995 
 114   0.0000      13.338145       362.9494 
 115   0.0000      13.585751       369.6871 
 116   0.0000      13.794257       375.3608 
 117   0.0000      14.075231       383.0065 
 118   0.0000      14.157812       385.2536 

                    ********************************
                    * MULLIKEN POPULATION ANALYSIS *
                    ********************************

-----------------------
MULLIKEN ATOMIC CHARGES
-----------------------
   0 C :   -0.156318
   1 C :   -0.191791
   2 C :   -0.181953
   3 C :   -0.181651
   4 C :   -0.155891
   5 C :   -0.191970
   6 C :   -0.175884
   7 H :    0.315692
   8 H :    0.320962
   9 H :    0.316829
  10 H :    0.328601
  11 H :    0.317111
  12 H :    0.320667
  13 H :    0.315596
Sum of atomic charges:    1.0000000

--------------------------------
MULLIKEN REDUCED ORBITAL CHARGES
--------------------------------
  0 C s       :     3.290432  s :     3.290432
      pz      :     0.846468  p :     2.826728
      px      :     0.919320
      py      :     1.060940
      dz2     :     0.004170  d :     0.039158
      dxz     :     0.005789
      dyz     :     0.004091
      dx2y2   :     0.010865
      dxy     :     0.014244
  1 C s       :     3.286942  s :     3.286942
      pz      :     0.904599  p :     2.867889
      px      :     0.889677
      py      :     1.073614
      dz2     :     0.003999  d :     0.036959
      dxz     :     0.005444
      dyz     :     0.002993
      dx2y2   :     0.011956
      dxy     :     0.012567
  2 C s       :     3.287420  s :     3.287420
      pz      :     0.902189  p :     2.856314
      px      :     1.091265
      py      :     0.862860
      dz2     :     0.003477  d :     0.038219
      dxz     :     0.003888
      dyz     :     0.005838
      dx2y2   :     0.013947
      dxy     :     0.011069
  3 C s       :     3.285916  s :     3.285916
      pz      :     0.878955  p :     2.857461
      px      :     0.990083
      py      :     0.988423
      dz2     :     0.003771  d :     0.038274
      dxz     :     0.003787
      dyz     :     0.005748
      dx2y2   :     0.009803
      dxy     :     0.015165
  4 C s       :     3.289817  s :     3.289817
      pz      :     0.832409  p :     2.826820
      px      :     0.866886
      py      :     1.127525
      dz2     :     0.004237  d :     0.039255
      dxz     :     0.006462
      dyz     :     0.003392
      dx2y2   :     0.015368
      dxy     :     0.009795
  5 C s       :     3.286137  s :     3.286137
      pz      :     0.935694  p :     2.868891
      px      :     1.014697
      py      :     0.918500
      dz2     :     0.003624  d :     0.036942
      dxz     :     0.004795
      dyz     :     0.003885
      dx2y2   :     0.011169
      dxy     :     0.013468
  6 C s       :     3.363216  s :     3.363216
      pz      :     0.781433  p :     2.778962
      px      :     1.081892
      py      :     0.915636
      dz2     :     0.003286  d :     0.033706
      dxz     :     0.003433
      dyz     :     0.004969
      dx2y2   :     0.011593
      dxy     :     0.010425
  7 H s       :     0.684308  s :     0.684308
  8 H s       :     0.679038  s :     0.679038
  9 H s       :     0.683171  s :     0.683171
 10 H s       :     0.671399  s :     0.671399
 11 H s       :     0.682889  s :     0.682889
 12 H s       :     0.679333  s :     0.679333
 13 H s       :     0.684404  s :     0.684404


                     *******************************
                     * LOEWDIN POPULATION ANALYSIS *
                     *******************************

----------------------
LOEWDIN ATOMIC CHARGES
----------------------
   0 C :   -0.023991
   1 C :   -0.085261
   2 C :   -0.053488
   3 C :   -0.055021
   4 C :   -0.023189
   5 C :   -0.085728
   6 C :    0.036729
   7 H :    0.182270
   8 H :    0.184636
   9 H :    0.182560
  10 H :    0.190668
  11 H :    0.182815
  12 H :    0.184699
  13 H :    0.182301

-------------------------------
LOEWDIN REDUCED ORBITAL CHARGES
-------------------------------
  0 C s       :     2.915674  s :     2.915674
      pz      :     0.856879  p :     3.021141
      px      :     1.077915
      py      :     1.086347
      dz2     :     0.007135  d :     0.087176
      dxz     :     0.011971
      dyz     :     0.008031
      dx2y2   :     0.025495
      dxy     :     0.034544
  1 C s       :     2.915279  s :     2.915279
      pz      :     0.926350  p :     3.086816
      px      :     1.072511
      py      :     1.087955
      dz2     :     0.006419  d :     0.083166
      dxz     :     0.012012
      dyz     :     0.006236
      dx2y2   :     0.027066
      dxy     :     0.031432
  2 C s       :     2.912104  s :     2.912104
      pz      :     0.896480  p :     3.055651
      px      :     1.074558
      py      :     1.084613
      dz2     :     0.006495  d :     0.085733
      dxz     :     0.006060
      dyz     :     0.012096
      dx2y2   :     0.033390
      dxy     :     0.027692
  3 C s       :     2.911465  s :     2.911465
      pz      :     0.892160  p :     3.057551
      px      :     1.051810
      py      :     1.113581
      dz2     :     0.006514  d :     0.086006
      dxz     :     0.007633
      dyz     :     0.011777
      dx2y2   :     0.024727
      dxy     :     0.035355
  4 C s       :     2.915353  s :     2.915353
      pz      :     0.850494  p :     3.020394
      px      :     1.056844
      py      :     1.113056
      dz2     :     0.007197  d :     0.087442
      dxz     :     0.014290
      dyz     :     0.006173
      dx2y2   :     0.035334
      dxy     :     0.024448
  5 C s       :     2.914779  s :     2.914779
      pz      :     0.932291  p :     3.087796
      px      :     1.094750
      py      :     1.060754
      dz2     :     0.006604  d :     0.083154
      dxz     :     0.008758
      dyz     :     0.007672
      dx2y2   :     0.028597
      dxy     :     0.031523
  6 C s       :     2.975515  s :     2.975515
      pz      :     0.785778  p :     2.919736
      px      :     1.068174
      py      :     1.065783
      dz2     :     0.005107  d :     0.068020
      dxz     :     0.005216
      dyz     :     0.009707
      dx2y2   :     0.025238
      dxy     :     0.022753
  7 H s       :     0.817730  s :     0.817730
  8 H s       :     0.815364  s :     0.815364
  9 H s       :     0.817440  s :     0.817440
 10 H s       :     0.809332  s :     0.809332
 11 H s       :     0.817185  s :     0.817185
 12 H s       :     0.815301  s :     0.815301
 13 H s       :     0.817699  s :     0.817699


                      *****************************
                      * MAYER POPULATION ANALYSIS *
                      *****************************

  NA   - Mulliken gross atomic population
  ZA   - Total nuclear charge
  QA   - Mulliken gross atomic charge
  VA   - Mayer's total valence
  BVA  - Mayer's bonded valence
  FA   - Mayer's free valence

  ATOM       NA         ZA         QA         VA         BVA        FA
  0 C      6.1563     6.0000    -0.1563     3.7038     3.7038     0.0000
  1 C      6.1918     6.0000    -0.1918     3.6957     3.6957    -0.0000
  2 C      6.1820     6.0000    -0.1820     3.7169     3.7169    -0.0000
  3 C      6.1817     6.0000    -0.1817     3.7167     3.7167     0.0000
  4 C      6.1559     6.0000    -0.1559     3.7043     3.7043    -0.0000
  5 C      6.1920     6.0000    -0.1920     3.6961     3.6961     0.0000
  6 C      6.1759     6.0000    -0.1759     3.6783     3.6783    -0.0000
  7 H      0.6843     1.0000     0.3157     0.8690     0.8690     0.0000
  8 H      0.6790     1.0000     0.3210     0.8654     0.8654     0.0000
  9 H      0.6832     1.0000     0.3168     0.8701     0.8701     0.0000
 10 H      0.6714     1.0000     0.3286     0.8655     0.8655    -0.0000
 11 H      0.6829     1.0000     0.3171     0.8701     0.8701    -0.0000
 12 H      0.6793     1.0000     0.3207     0.8657     0.8657     0.0000
 13 H      0.6844     1.0000     0.3156     0.8691     0.8691     0.0000

  Mayer bond orders larger than 0.100000
B(  0-C ,  1-C ) :   1.4605 B(  0-C ,  2-C ) :   1.2681 B(  0-C , 12-H ) :   0.8763 
B(  1-C ,  6-C ) :   1.3149 B(  1-C , 11-H ) :   0.8790 B(  2-C ,  3-C ) :   1.4961 
B(  2-C , 13-H ) :   0.8793 B(  3-C ,  4-C ) :   1.2700 B(  3-C ,  7-H ) :   0.8791 
B(  4-C ,  5-C ) :   1.4584 B(  4-C ,  8-H ) :   0.8761 B(  5-C ,  6-C ) :   1.3175 
B(  5-C ,  9-H ) :   0.8792 B(  6-C , 10-H ) :   0.8717 

-------
TIMINGS
-------

Total SCF time: 0 days 0 hours 1 min 1 sec 

Total time                  ....      61.174 sec
Sum of individual times     ....      60.845 sec  ( 99.5%)

Fock matrix formation       ....      59.167 sec  ( 96.7%)
  Split-RI-J                ....       4.172 sec  (  7.1% of F)
  Chain of spheres X        ....      48.076 sec  ( 81.3% of F)
  XC integration            ....       6.938 sec  ( 11.7% of F)
    Basis function eval.    ....       2.815 sec  ( 40.6% of XC)
    Density eval.           ....       1.618 sec  ( 23.3% of XC)
    XC-Functional eval.     ....       0.897 sec  ( 12.9% of XC)
    XC-Potential eval.      ....       1.355 sec  ( 19.5% of XC)
Diagonalization             ....       0.020 sec  (  0.0%)
Density matrix formation    ....       0.002 sec  (  0.0%)
Population analysis         ....       0.007 sec  (  0.0%)
Initial guess               ....       0.021 sec  (  0.0%)
Orbital Transformation      ....       0.000 sec  (  0.0%)
Orbital Orthonormalization  ....       0.000 sec  (  0.0%)
DIIS solution               ....       0.004 sec  (  0.0%)
SOSCF solution              ....       0.030 sec  (  0.0%)
Grid generation             ....       1.594 sec  (  2.6%)

Maximum memory used throughout the entire SCF-calculation: 60.5 MB


-------------------------------------------------------------------------------
                          DFT DISPERSION CORRECTION                            
                                                                               
                              DFTD3 V3.1  Rev 1                                
                          USING Becke-Johnson damping                          
-------------------------------------------------------------------------------
The PBEh-3c composite method is recognized
Using three-body term ABC
Active option DFTDOPT                   ...         4   

molecular C6(AA) [au] = 2272.185827 


            DFT-D V3
 parameters
 s6 scaling factor         :     1.0000 
 a1 scaling factor         :     0.4860 
 s8 scaling factor         :     0.0000 
 a2 scaling factor         :     4.5000 
 Damping factor alpha9(ATM):    16.0000 
 ad hoc parameters k1-k3   :    16.0000     1.3333    -4.0000 

 Edisp/kcal,au: -4.590140262229  -0.007314853341 
 E6   /kcal   :  -4.600935214 
 E8   /kcal   :  -0.000000000 
 E6(ABC)      :   0.010794952 
 % E8         :   0.000000000 
 % E6(ABC)    :  -0.235176958 

-------------------------   ----------------
Dispersion correction           -0.007314853
-------------------------   ----------------

------------------   -----------------
gCP correction             0.017386315
------------------   -----------------

-------------------------   --------------------
FINAL SINGLE POINT ENERGY      -270.020327288628
-------------------------   --------------------

------------------------------------------------------------------------------
                         ORCA SCF GRADIENT CALCULATION
------------------------------------------------------------------------------

 ... reading COSX grid (gridx3)
Gradient of the Kohn-Sham DFT energy:
Kohn-Sham wavefunction type      ... RKS
Hartree-Fock exchange scaling    ...    0.420
Number of operators              ...    1
Number of atoms                  ...   14
Basis set dimensions             ...  119
Integral neglect threshold       ... 2.5e-11
Integral primitive cutoff        ... 2.5e-12
SHARK Integral package           ... ON

Nuc. rep. gradient       (SHARK) ... done (  0.0 sec)
HCore & Overlap gradient (SHARK) ... done (  0.3 sec)
RI-J gradient            (SHARK) ... done (  1.4 sec)
COSX-gradient                    ... done ( 11.0 sec)
Exchange-correlation gradient    ... done
Dispersion correction            ... done
gCP correction                   ... done

------------------
CARTESIAN GRADIENT
------------------

   1   C   :   -0.060265998   -0.046028159    0.017128543
   2   C   :    0.084294962   -0.038192708   -0.034862290
   3   C   :    0.012630580    0.069457196    0.002903381
   4   C   :    0.044874227   -0.049060531   -0.021687417
   5   C   :   -0.070797130    0.000145727    0.025877051
   6   C   :    0.048336963    0.083642105   -0.008689544
   7   C   :   -0.047617029   -0.016223070    0.015729147
   8   H   :    0.003242354    0.001682746   -0.000999021
   9   H   :   -0.001880256    0.002575971    0.000960347
  10   H   :    0.000385603    0.004966476    0.000396522
  11   H   :   -0.018253015   -0.006307191    0.005986310
  12   H   :    0.002016309   -0.004665765   -0.001243390
  13   H   :   -0.000168214   -0.003539528   -0.000316267
  14   H   :    0.003182186    0.001420620   -0.001033151

Difference to translation invariance:
           :   -0.0000184574   -0.0001261126    0.0001502218

Difference to rotation invariance:
           :   -0.0051779107   -0.0005269331   -0.0015506867

Norm of the cartesian gradient     ...    0.2099694767
RMS gradient                       ...    0.0323989936
MAX gradient                       ...    0.0842949622

-------
TIMINGS
-------

Total SCF gradient time            ...       16.641 sec

One electron gradient       ....       0.311 sec  (  1.9%)
RI-J Coulomb gradient       ....       1.423 sec  (  8.6%)
COSX gradient               ....      10.991 sec  ( 66.1%)
XC gradient                 ....       3.113 sec  ( 18.7%)

Maximum memory used throughout the entire SCFGRAD-calculation: 48.2 MB
------------------------------------------------------------------------------
                         ORCA GEOMETRY RELAXATION STEP
------------------------------------------------------------------------------

Reading the OPT-File                    .... done
Getting information on internals        .... done
Copying old internal coords+grads       .... done
Making the new internal coordinates     .... (new redundants).... done
Validating the new internal coordinates .... (new redundants).... done
Calculating the B-matrix                .... done
Calculating the G,G- and P matrices     .... done
Transforming gradient to internals      .... done
Projecting the internal gradient        .... done
Number of atoms                         ....  14
Number of internal coordinates          ....  63
Current Energy                          ....  -270.020327289 Eh
Current gradient norm                   ....     0.209969477 Eh/bohr
Maximum allowed component of the step   ....  0.300
Current trust radius                    ....  0.300
Evaluating the initial hessian          ....  (Almloef) done
Projecting the Hessian                  .... done
Forming the augmented Hessian           .... done
Diagonalizing the augmented Hessian     .... done
Last element of RFO vector              ....  0.961751605
Lowest eigenvalues of augmented Hessian:
 -0.039642605  0.012093570  0.012874139  0.021387674  0.021455897
Length of the computed step             ....  0.284816862
The final length of the internal step   ....  0.284816862
Converting the step to cartesian space:
 Initial RMS(Int)=    0.0358835517
Transforming coordinates:
 Iter   0:  RMS(Cart)=    0.0598357745 RMS(Int)=    2.0946143639
 Iter   1:  RMS(Cart)=    0.0005844734 RMS(Int)=    0.0004359549
 Iter   2:  RMS(Cart)=    0.0000268617 RMS(Int)=    0.0000168769
 Iter   3:  RMS(Cart)=    0.0000012413 RMS(Int)=    0.0000007217
 Iter   4:  RMS(Cart)=    0.0000000634 RMS(Int)=    0.0000000340
done
Storing new coordinates                 .... done

                                .--------------------.
          ----------------------|Geometry convergence|-------------------------
          Item                value                   Tolerance       Converged
          ---------------------------------------------------------------------
          RMS gradient        0.0178373337            0.0001000000      NO
          MAX gradient        0.0724042678            0.0003000000      NO
          RMS step            0.0358835517            0.0020000000      NO
          MAX step            0.1584105471            0.0040000000      NO
          ........................................................
          Max(Bonds)      0.0838      Max(Angles)    1.53
          Max(Dihed)        0.04      Max(Improp)    0.00
          ---------------------------------------------------------------------

The optimization has not yet converged - more geometry cycles are needed


    ---------------------------------------------------------------------------
                         Redundant Internal Coordinates
                            (Angstroem and degrees)

        Definition                    Value    dE/dq     Step     New-Value
    ----------------------------------------------------------------------------
     1. B(C   1,C   0)                1.3363 -0.039353  0.0260    1.3623   
     2. B(C   2,C   0)                1.4773  0.050528 -0.0540    1.4233   
     3. B(C   3,C   2)                1.3386 -0.027909  0.0188    1.3574   
     4. B(C   4,C   3)                1.4740  0.048443 -0.0513    1.4228   
     5. B(C   5,C   4)                1.3375 -0.038465  0.0255    1.3629   
     6. B(C   6,C   5)                1.4970  0.071981 -0.0829    1.4141   
     7. B(C   6,C   1)                1.4988  0.072404 -0.0838    1.4149   
     8. B(H   7,C   3)                1.0880  0.003605 -0.0047    1.0833   
     9. B(H   8,C   4)                1.0870  0.002738 -0.0036    1.0834   
    10. B(H   9,C   5)                1.0866  0.002586 -0.0034    1.0832   
    11. B(H  10,C   6)                1.1121  0.020211 -0.0288    1.0834   
    12. B(H  11,C   1)                1.0880  0.003640 -0.0048    1.0832   
    13. B(H  12,C   0)                1.0874  0.002951 -0.0039    1.0835   
    14. B(H  13,C   2)                1.0874  0.003129 -0.0041    1.0832   
    15. A(C   2,C   0,H  12)          114.82  0.002143   -0.32    114.51   
    16. A(C   1,C   0,C   2)          129.02 -0.000247    0.04    129.06   
    17. A(C   1,C   0,H  12)          116.15 -0.001896    0.28    116.43   
    18. A(C   0,C   1,C   6)          128.49 -0.001259    0.11    128.60   
    19. A(C   6,C   1,H  11)          115.15  0.004494   -0.63    114.52   
    20. A(C   0,C   1,H  11)          116.36 -0.003235    0.52    116.87   
    21. A(C   3,C   2,H  13)          116.09 -0.005502    0.70    116.80   
    22. A(C   0,C   2,H  13)          114.51 -0.001656    0.17    114.68   
    23. A(C   0,C   2,C   3)          129.40  0.007158   -0.88    128.52   
    24. A(C   2,C   3,C   4)          129.33  0.006939   -0.86    128.47   
    25. A(C   4,C   3,H   7)          114.33 -0.002258    0.27    114.59   
    26. A(C   2,C   3,H   7)          116.34 -0.004681    0.59    116.93   
    27. A(C   5,C   4,H   8)          116.16 -0.001689    0.26    116.42   
    28. A(C   3,C   4,H   8)          114.90  0.002234   -0.32    114.59   
    29. A(C   3,C   4,C   5)          128.94 -0.000545    0.06    128.99   
    30. A(C   6,C   5,H   9)          115.25  0.004644   -0.65    114.61   
    31. A(C   4,C   5,H   9)          116.02 -0.004140    0.65    116.67   
    32. A(C   4,C   5,C   6)          128.72 -0.000504   -0.00    128.72   
    33. A(C   5,C   6,H  10)          116.92  0.005720   -0.76    116.16   
    34. A(C   1,C   6,H  10)          116.98  0.005821   -0.77    116.21   
    35. A(C   1,C   6,C   5)          126.10 -0.011541    1.53    127.63   
    36. D(C   6,C   1,C   0,C   2)      0.00 -0.000009    0.01      0.01   
    37. D(H  11,C   1,C   0,C   2)   -180.00 -0.000016    0.01   -179.99   
    38. D(C   6,C   1,C   0,H  12)   -180.00 -0.000000   -0.00   -180.00   
    39. D(H  11,C   1,C   0,H  12)     -0.00 -0.000007    0.01      0.00   
    40. D(C   3,C   2,C   0,H  12)    180.00 -0.000033    0.03    180.03   
    41. D(H  13,C   2,C   0,C   1)    180.00  0.000016   -0.01    179.99   
    42. D(H  13,C   2,C   0,H  12)      0.00  0.000008   -0.00     -0.00   
    43. D(C   3,C   2,C   0,C   1)     -0.00 -0.000024    0.02      0.02   
    44. D(H   7,C   3,C   2,H  13)     -0.00 -0.000015    0.01      0.01   
    45. D(H   7,C   3,C   2,C   0)   -180.00  0.000025   -0.02   -180.02   
    46. D(C   4,C   3,C   2,H  13)   -180.00 -0.000006    0.01   -179.99   
    47. D(C   4,C   3,C   2,C   0)      0.00  0.000035   -0.03     -0.03   
    48. D(H   8,C   4,C   3,C   2)   -180.00 -0.000004    0.00   -180.00   
    49. D(C   5,C   4,C   3,H   7)    180.00  0.000006   -0.01    179.99   
    50. D(C   5,C   4,C   3,C   2)     -0.00 -0.000003    0.00      0.00   
    51. D(H   8,C   4,C   3,H   7)      0.00  0.000005   -0.00     -0.00   
    52. D(H   9,C   5,C   4,H   8)     -0.00  0.000004   -0.00     -0.01   
    53. D(H   9,C   5,C   4,C   3)   -180.00  0.000002   -0.00   -180.00   
    54. D(C   6,C   5,C   4,H   8)    180.00 -0.000026    0.02    180.02   
    55. D(C   6,C   5,C   4,C   3)      0.00 -0.000027    0.02      0.02   
    56. D(H  10,C   6,C   5,H   9)      0.00  0.000009   -0.01     -0.01   
    57. D(C   1,C   6,C   5,H   9)   -180.00 -0.000014    0.01   -179.99   
    58. D(C   1,C   6,C   5,C   4)     -0.00  0.000016   -0.01     -0.01   
    59. D(H  10,C   6,C   1,H  11)      0.00 -0.000003    0.01      0.01   
    60. D(H  10,C   6,C   1,C   0)    180.00 -0.000010    0.01    180.01   
    61. D(H  10,C   6,C   5,C   4)    180.00  0.000038   -0.04    179.96   
    62. D(C   5,C   6,C   1,H  11)   -180.00  0.000020   -0.02   -180.02   
    63. D(C   5,C   6,C   1,C   0)     -0.00  0.000013   -0.01     -0.01   
    ----------------------------------------------------------------------------

         *************************************************************
         *                GEOMETRY OPTIMIZATION CYCLE   2            *
         *************************************************************
---------------------------------
CARTESIAN COORDINATES (ANGSTROEM)
---------------------------------
  C      3.500396  -16.933462   -3.079894
  C      2.223169  -17.076366   -2.627955
  C      4.269198  -15.745749   -3.234914
  C      3.909037  -14.464874   -2.966744
  C      2.669787  -13.981224   -2.462208
  C      1.548877  -14.680395   -2.126987
  C      1.323292  -16.074905   -2.192655
  H      4.649500  -13.697076   -3.155710
  H      2.624881  -12.906704   -2.331341
  H      0.708716  -14.104515   -1.758472
  H      0.346592  -16.416283   -1.871455
  H      1.827189  -18.083902   -2.589888
  H      4.015803  -17.842916   -3.364816
  H      5.270582  -15.901690   -3.617460

----------------------------
CARTESIAN COORDINATES (A.U.)
----------------------------
  NO LB      ZA    FRAG     MASS         X           Y           Z
   0 C     6.0000    0    12.011    6.614790  -31.999606   -5.820155
   1 C     6.0000    0    12.011    4.201180  -32.269655   -4.966116
   2 C     6.0000    0    12.011    8.067615  -29.755152   -6.113102
   3 C     6.0000    0    12.011    7.387010  -27.334650   -5.606333
   4 C     6.0000    0    12.011    5.045166  -26.420683   -4.652898
   5 C     6.0000    0    12.011    2.926953  -27.741926   -4.019422
   6 C     6.0000    0    12.011    2.500660  -30.377168   -4.143518
   7 H     1.0000    0     1.008    8.786281  -25.883722   -5.963428
   8 H     1.0000    0     1.008    4.960307  -24.390136   -4.405596
   9 H     1.0000    0     1.008    1.339280  -26.653671   -3.323031
  10 H     1.0000    0     1.008    0.654964  -31.022280   -3.536538
  11 H     1.0000    0     1.008    3.452887  -34.173622   -4.894179
  12 H     1.0000    0     1.008    7.588768  -33.718224   -6.358581
  13 H     1.0000    0     1.008    9.959957  -30.049839   -6.836009

--------------------------------
INTERNAL COORDINATES (ANGSTROEM)
--------------------------------
 C      0   0   0     0.000000000000     0.00000000     0.00000000
 C      1   0   0     1.362343549614     0.00000000     0.00000000
 C      1   2   0     1.423289131413   129.05575061     0.00000000
 C      3   1   2     1.357302694138   128.50958460     0.00000000
 C      4   3   1     1.422749418771   128.46162713   359.97168772
 C      5   4   3     1.362957862364   128.98936403     0.00000000
 C      6   5   4     1.414163456223   128.72767920     0.02375064
 H      4   3   1     1.083285216751   116.93745154   179.97932356
 H      5   4   3     1.083390172103   114.58838398   180.00402252
 H      6   5   4     1.083194121370   116.66908381   179.99826165
 H      7   6   5     1.083352560909   116.15364633   179.96330091
 H      2   1   3     1.083225828790   116.86824456   180.01442936
 H      1   2   3     1.083480937294   116.43387002   179.99053611
 H      3   1   2     1.083249408375   114.68759789   179.98638448

---------------------------
INTERNAL COORDINATES (A.U.)
---------------------------
 C      0   0   0     0.000000000000     0.00000000     0.00000000
 C      1   0   0     2.574456209084     0.00000000     0.00000000
 C      1   2   0     2.689626667757   129.05575061     0.00000000
 C      3   1   2     2.564930372755   128.50958460     0.00000000
 C      4   3   1     2.688606758672   128.46162713   359.97168772
 C      5   4   3     2.575617091943   128.98936403     0.00000000
 C      6   5   4     2.672381640861   128.72767920     0.02375064
 H      4   3   1     2.047112384586   116.93745154   179.97932356
 H      5   4   3     2.047310721457   114.58838398   180.00402252
 H      6   5   4     2.046940239263   116.66908381   179.99826165
 H      7   6   5     2.047239646601   116.15364633   179.96330091
 H      2   1   3     2.047000157602   116.86824456   180.01442936
 H      1   2   3     2.047482242811   116.43387002   179.99053611
 H      3   1   2     2.047044716560   114.68759789   179.98638448

------------------------------------------------------------------------------
                   ___                                                        
                  /   \      - P O W E R E D   B Y -                         
                 /     \                                                     
                 |  |  |   _    _      __       _____    __    __             
                 |  |  |  | |  | |    /  \     |  _  \  |  |  /  |          
                  \  \/   | |  | |   /    \    | | | |  |  | /  /          
                 / \  \   | |__| |  /  /\  \   | |_| |  |  |/  /          
                |  |  |   |  __  | /  /__\  \  |    /   |      \           
                |  |  |   | |  | | |   __   |  |    \   |  |\   \          
                \     /   | |  | | |  |  |  |  | |\  \  |  | \   \       
                 \___/    |_|  |_| |__|  |__|  |_| \__\ |__|  \__/        
                                                                              
                      - O R C A' S   B I G   F R I E N D -                    
                                      &                                       
                       - I N T E G R A L  F E E D E R -                       
                                                                              
 v1 FN, 2020, v2 2021                                                         
------------------------------------------------------------------------------


Reading SHARK input file OPT_Ar-4.SHARKINP.tmp ... ok
----------------------
SHARK INTEGRAL PACKAGE
----------------------

Number of atoms                             ...     14
Number of basis functions                   ...    119
Number of shells                            ...     63
Maximum angular momentum                    ...      2
Integral batch strategy                     ... SHARK/LIBINT Hybrid
RI-J (if used) integral strategy            ... SPLIT-RIJ (Revised 2003 algorithm where possible)
Printlevel                                  ...      1
Contraction scheme used                     ... SEGMENTED contraction
Coulomb Range Separation                    ... NOT USED
Exchange Range Separation                   ... NOT USED
Finite Nucleus Model                        ... NOT USED
Auxiliary Coulomb fitting basis             ... AVAILABLE
   # of basis functions in Aux-J            ...    420
   # of shells in Aux-J                     ...    140
   Maximum angular momentum in Aux-J        ...      4
Auxiliary J/K fitting basis                 ... NOT available
Auxiliary Correlation fitting basis         ... NOT available
Auxiliary 'external' fitting basis          ... NOT available
Integral threshold                          ...     2.500000e-11
Primitive cut-off                           ...     2.500000e-12
Primitive pair pre-selection threshold      ...     2.500000e-12

Calculating pre-screening integrals         ... done (  0.1 sec) Dimension = 63
Organizing shell pair data                  ... done (  0.0 sec)
Shell pair information
Total number of shell pairs                 ...      2016
Shell pairs after pre-screening             ...      1914
Total number of primitive shell pairs       ...      7252
Primitive shell pairs kept                  ...      5069
          la=0 lb=0:    801 shell pairs
          la=1 lb=0:    588 shell pairs
          la=1 lb=1:    105 shell pairs
          la=2 lb=0:    294 shell pairs
          la=2 lb=1:     98 shell pairs
          la=2 lb=2:     28 shell pairs

Calculating one electron integrals          ... done (  0.0 sec)
Calculating RI/J V-Matrix + Cholesky decomp.... done (  0.0 sec)
Calculating Nuclear repulsion               ... done (  0.0 sec) ENN=    259.758917885235 Eh

SHARK setup successfully completed in   0.4 seconds

Maximum memory used throughout the entire GTOINT-calculation: 15.3 MB

Diagonalization of the overlap matrix:
Smallest eigenvalue                        ... 1.229e-03
Time for diagonalization                   ...    0.003 sec
Threshold for overlap eigenvalues          ... 1.000e-08
Number of eigenvalues below threshold      ... 0
Time for construction of square roots      ...    0.002 sec
Total time needed                          ...    0.019 sec

-------------------
DFT GRID GENERATION
-------------------

General Integration Accuracy     IntAcc      ... 4.159
Radial Grid Type                 RadialGrid  ... OptM3 with GC (2021)
Angular Grid (max. ang.)         AngularGrid ... 3 (Lebedev-194)
Angular grid pruning method      GridPruning ... 4 (adaptive)
Weight generation scheme         WeightScheme... Becke
Basis function cutoff            BFCut       ... 1.0000e-11
Integration weight cutoff        WCut        ... 1.0000e-14
Angular grids for H and He will be reduced by one unit
Partially contracted basis set               ... off
Rotationally invariant grid construction     ... off

Total number of grid points                  ...    32870
Total number of batches                      ...      523
Average number of points per batch           ...       62
Average number of grid points per atom       ...     2348
Time for grid setup =    0.499 sec

--------------------
COSX GRID GENERATION
--------------------

GRIDX 1
-------
General Integration Accuracy     IntAcc      ... 3.816
Radial Grid Type                 RadialGrid  ... OptM3 with GC (2021)
Angular Grid (max. ang.)         AngularGrid ... 1 (Lebedev-50)
Angular grid pruning method      GridPruning ... 4 (adaptive)
Weight generation scheme         WeightScheme... Becke
Basis function cutoff            BFCut       ... 1.0000e-11
Integration weight cutoff        WCut        ... 1.0000e-14
Angular grids for H and He will be reduced by one unit
Partially contracted basis set               ... on
Rotationally invariant grid construction     ... off

Total number of grid points                  ...     8300
Total number of batches                      ...      134
Average number of points per batch           ...       61
Average number of grid points per atom       ...      593
UseSFitting                                  ... on

GRIDX 2
-------
General Integration Accuracy     IntAcc      ... 4.020
Radial Grid Type                 RadialGrid  ... OptM3 with GC (2021)
Angular Grid (max. ang.)         AngularGrid ... 2 (Lebedev-110)
Angular grid pruning method      GridPruning ... 4 (adaptive)
Weight generation scheme         WeightScheme... Becke
Basis function cutoff            BFCut       ... 1.0000e-11
Integration weight cutoff        WCut        ... 1.0000e-14
Angular grids for H and He will be reduced by one unit
Partially contracted basis set               ... on
Rotationally invariant grid construction     ... off

Total number of grid points                  ...    18019
Total number of batches                      ...      292
Average number of points per batch           ...       61
Average number of grid points per atom       ...     1287
UseSFitting                                  ... on

GRIDX 3
-------
General Integration Accuracy     IntAcc      ... 4.338
Radial Grid Type                 RadialGrid  ... OptM3 with GC (2021)
Angular Grid (max. ang.)         AngularGrid ... 3 (Lebedev-194)
Angular grid pruning method      GridPruning ... 4 (adaptive)
Weight generation scheme         WeightScheme... Becke
Basis function cutoff            BFCut       ... 1.0000e-11
Integration weight cutoff        WCut        ... 1.0000e-14
Angular grids for H and He will be reduced by one unit
Partially contracted basis set               ... on
Rotationally invariant grid construction     ... off

Total number of grid points                  ...    39603
Total number of batches                      ...      627
Average number of points per batch           ...       63
Average number of grid points per atom       ...     2829
UseSFitting                                  ... on

Time for X-Grid setup             =    1.252 sec

--------------
SCF ITERATIONS
--------------
ITER       Energy         Delta-E        Max-DP      RMS-DP      [F,P]     Damp
               ***  Starting incremental Fock matrix formation  ***
  0   -270.0513090217   0.000000000000 0.00807144  0.00040649  0.0252002 0.7000
  1   -270.0531642704  -0.001855248747 0.00696331  0.00032708  0.0163621 0.7000
                               ***Turning on DIIS***
  2   -270.0545144572  -0.001350186738 0.01502343  0.00080400  0.0096424 0.0000
  3   -270.0578680868  -0.003353629644 0.00586604  0.00021835  0.0053186 0.0000
                      *** Initiating the SOSCF procedure ***
                           *** Shutting down DIIS ***
                      *** Re-Reading the Fockian *** 
                      *** Removing any level shift *** 
ITER      Energy       Delta-E        Grad      Rot      Max-DP    RMS-DP
  4   -270.05808560  -0.0002175092  0.002563  0.002563  0.003390  0.000092
               *** Restarting incremental Fock matrix formation ***
  5   -270.05816824  -0.0000826445  0.001401  0.005012  0.001862  0.000089
[...]
E(X)               :      -21.442265438757 Eh       
E(C)               :       -2.056056538754 Eh       
E(XC)              :      -23.498321977511 Eh       
DFET-embed. en.    :        0.000000000000 Eh       

---------------
SCF CONVERGENCE
---------------

  Last Energy change         ...   -1.8321e-10  Tolerance :   1.0000e-08
  Last MAX-Density change    ...    1.9984e-15  Tolerance :   1.0000e-07
  Last RMS-Density change    ...    4.8253e-17  Tolerance :   5.0000e-09
  Last Orbital Gradient      ...    1.0380e-06  Tolerance :   1.0000e-05
  Last Orbital Rotation      ...    2.6787e-06  Tolerance :   1.0000e-05

             **** THE GBW FILE WAS UPDATED (OPT_Ar-4.gbw) ****
             **** DENSITY OPT_Ar-4.scfp WAS UPDATED ****
             **** ENERGY FILE WAS UPDATED (OPT_Ar-4.en.tmp) ****
             **** THE GBW FILE WAS UPDATED (OPT_Ar-4.gbw) ****
             **** DENSITY OPT_Ar-4.scfp WAS UPDATED ****
----------------
ORBITAL ENERGIES
----------------

  NO   OCC          E(Eh)            E(eV) 
   0   2.0000     -10.679081      -290.5926 
   1   2.0000     -10.678945      -290.5889 
   2   2.0000     -10.678939      -290.5887 
   3   2.0000     -10.678410      -290.5743 
   4   2.0000     -10.678401      -290.5741 
   5   2.0000     -10.678022      -290.5637 
   6   2.0000     -10.678006      -290.5633 
   7   2.0000      -1.165260       -31.7083 
   8   2.0000      -1.087698       -29.5978 
   9   2.0000      -1.087682       -29.5973 
  10   2.0000      -0.954849       -25.9828 
  11   2.0000      -0.954830       -25.9822 
  12   2.0000      -0.809153       -22.0182 
  13   2.0000      -0.809138       -22.0178 
  14   2.0000      -0.802798       -21.8452 
  15   2.0000      -0.720879       -19.6161 
  16   2.0000      -0.720862       -19.6156 
  17   2.0000      -0.658444       -17.9172 
  18   2.0000      -0.658426       -17.9167 
  19   2.0000      -0.632645       -17.2151 
  20   2.0000      -0.610350       -16.6085 
  21   2.0000      -0.610315       -16.6075 
  22   2.0000      -0.536053       -14.5868 
  23   2.0000      -0.536042       -14.5864 
  24   0.0000      -0.266423        -7.2497 
  25   0.0000      -0.266387        -7.2487 
  26   0.0000      -0.064026        -1.7422 
  27   0.0000      -0.046429        -1.2634 
  28   0.0000      -0.046412        -1.2629 
  29   0.0000      -0.003372        -0.0918 
  30   0.0000      -0.003353        -0.0913 
  31   0.0000       0.053527         1.4566 
  32   0.0000       0.053550         1.4572 
  33   0.0000       0.077995         2.1223 
  34   0.0000       0.078009         2.1227 
  35   0.0000       0.102356         2.7852 
  36   0.0000       0.102422         2.7870 
  37   0.0000       0.191663         5.2154 
  38   0.0000       0.191708         5.2166 
  39   0.0000       0.202695         5.5156 
  40   0.0000       0.202714         5.5161 
  41   0.0000       0.268956         7.3187 
  42   0.0000       0.295857         8.0507 
  43   0.0000       0.379074        10.3151 
  44   0.0000       0.379137        10.3168 
  45   0.0000       0.398386        10.8406 
  46   0.0000       0.398475        10.8431 
  47   0.0000       0.410716        11.1761 
  48   0.0000       0.410753        11.1772 
  49   0.0000       0.418012        11.3747 
  50   0.0000       0.418078        11.3765 
  51   0.0000       0.446503        12.1500 
  52   0.0000       0.446572        12.1519 
  53   0.0000       0.463696        12.6178 
  54   0.0000       0.482169        13.1205 
  55   0.0000       0.524990        14.2857 
  56   0.0000       0.525017        14.2864 
  57   0.0000       0.720547        19.6071 
  58   0.0000       0.720557        19.6073 
  59   0.0000       0.779984        21.2244 
  60   0.0000       0.779998        21.2248 
  61   0.0000       0.796823        21.6826 
  62   0.0000       0.796833        21.6829 
  63   0.0000       0.803301        21.8589 
  64   0.0000       0.820270        22.3207 
  65   0.0000       0.820425        22.3249 
  66   0.0000       0.830322        22.5942 
  67   0.0000       0.894320        24.3357 
  68   0.0000       0.894355        24.3366 
  69   0.0000       0.936026        25.4706 
  70   0.0000       0.936149        25.4739 
  71   0.0000       0.980885        26.6912 
  72   0.0000       0.980916        26.6921 
  73   0.0000       1.112825        30.2815 
  74   0.0000       1.112916        30.2840 
  75   0.0000       1.133192        30.8357 
  76   0.0000       1.133200        30.8359 
  77   0.0000       1.211134        32.9566 
  78   0.0000       1.211160        32.9573 
  79   0.0000       1.235683        33.6247 
  80   0.0000       1.320013        35.9194 
  81   0.0000       1.320039        35.9201 
  82   0.0000       1.396605        38.0035 
  83   0.0000       1.396645        38.0047 
  84   0.0000       1.606390        43.7121 
  85   0.0000       1.606398        43.7123 
  86   0.0000       1.619125        44.0586 
  87   0.0000       1.737298        47.2743 
  88   0.0000       1.797657        48.9167 
  89   0.0000       1.797684        48.9175 
  90   0.0000       1.895940        51.5911 
  91   0.0000       1.896157        51.5971 
  92   0.0000       1.946303        52.9616 
  93   0.0000       1.946532        52.9678 
  94   0.0000       1.955153        53.2024 
  95   0.0000       1.955213        53.2040 
  96   0.0000       2.050220        55.7893 
  97   0.0000       2.050281        55.7910 
  98   0.0000       2.256460        61.4014 
  99   0.0000       2.256694        61.4078 
 100   0.0000       2.258484        61.4565 
 101   0.0000       2.258600        61.4596 
 102   0.0000       2.435706        66.2789 
 103   0.0000       2.435764        66.2805 
 104   0.0000       2.490004        67.7565 
 105   0.0000       2.490055        67.7578 
 106   0.0000       2.559876        69.6578 
 107   0.0000       2.559937        69.6594 
 108   0.0000       2.598458        70.7076 
 109   0.0000       2.876450        78.2722 
 110   0.0000       3.145327        85.5887 
 111   0.0000       3.145450        85.5920 
 112   0.0000      12.980865       353.2273 
 113   0.0000      13.344234       363.1151 
 114   0.0000      13.344303       363.1170 
 115   0.0000      13.735958       373.7744 
 116   0.0000      13.736132       373.7791 
 117   0.0000      14.204206       386.5161 
 118   0.0000      14.204375       386.5207 

                    ********************************
                    * MULLIKEN POPULATION ANALYSIS *
                    ********************************

-----------------------
MULLIKEN ATOMIC CHARGES
-----------------------
   0 C :   -0.177298
   1 C :   -0.176965
   2 C :   -0.177399
   3 C :   -0.177198
   4 C :   -0.177316
   5 C :   -0.177139
   6 C :   -0.177634
   7 H :    0.320171
   8 H :    0.320133
   9 H :    0.320088
  10 H :    0.320247
  11 H :    0.320026
  12 H :    0.320161
  13 H :    0.320121
Sum of atomic charges:    1.0000000

--------------------------------
MULLIKEN REDUCED ORBITAL CHARGES
--------------------------------
  0 C s       :     3.282056  s :     3.282056
      pz      :     0.870343  p :     2.856052
      px      :     0.923570
      py      :     1.062139
      dz2     :     0.003805  d :     0.039189
      dxz     :     0.005083
      dyz     :     0.004688
      dx2y2   :     0.011762
      dxy     :     0.013851
  1 C s       :     3.281883  s :     3.281883
      pz      :     0.852695  p :     2.855899
      px      :     0.900561
      py      :     1.102643
      dz2     :     0.004337  d :     0.039184
      dxz     :     0.005588
      dyz     :     0.003678
      dx2y2   :     0.013078
      dxy     :     0.012503
  2 C s       :     3.282078  s :     3.282078
      pz      :     0.885723  p :     2.856128
      px      :     1.097094
      py      :     0.873311
      dz2     :     0.003452  d :     0.039192
      dxz     :     0.004282
      dyz     :     0.005779
      dx2y2   :     0.014676
      dxy     :     0.011002
  3 C s       :     3.282013  s :     3.282013
      pz      :     0.861164  p :     2.855992
      px      :     0.997036
      py      :     0.997792
      dz2     :     0.004064  d :     0.039193
      dxz     :     0.004396
      dyz     :     0.005134
      dx2y2   :     0.010438
      dxy     :     0.015161
  4 C s       :     3.282088  s :     3.282088
      pz      :     0.856868  p :     2.856041
      px      :     0.868003
      py      :     1.131169
      dz2     :     0.004199  d :     0.039187
      dxz     :     0.005905
      dyz     :     0.003486
      dx2y2   :     0.015129
      dxy     :     0.010469
  5 C s       :     3.282028  s :     3.282028
      pz      :     0.883096  p :     2.855929
      px      :     1.025547
      py      :     0.947286
      dz2     :     0.003493  d :     0.039182
      dxz     :     0.004486
      dyz     :     0.005512
      dx2y2   :     0.011238
      dxy     :     0.014453
  6 C s       :     3.282058  s :     3.282058
      pz      :     0.875930  p :     2.856383
      px      :     1.084428
      py      :     0.896025
      dz2     :     0.003659  d :     0.039192
      dxz     :     0.003977
      dyz     :     0.005900
      dx2y2   :     0.013467
      dxy     :     0.012189
  7 H s       :     0.679829  s :     0.679829
  8 H s       :     0.679867  s :     0.679867
  9 H s       :     0.679912  s :     0.679912
 10 H s       :     0.679753  s :     0.679753
 11 H s       :     0.679974  s :     0.679974
 12 H s       :     0.679839  s :     0.679839
 13 H s       :     0.679879  s :     0.679879


                     *******************************
                     * LOEWDIN POPULATION ANALYSIS *
                     *******************************

----------------------
LOEWDIN ATOMIC CHARGES
----------------------
   0 C :   -0.040330
   1 C :   -0.040332
   2 C :   -0.040358
   3 C :   -0.040307
   4 C :   -0.040364
   5 C :   -0.040286
   6 C :   -0.040411
   7 H :    0.183195
   8 H :    0.183206
   9 H :    0.183189
  10 H :    0.183221
  11 H :    0.183181
  12 H :    0.183217
  13 H :    0.183179

-------------------------------
LOEWDIN REDUCED ORBITAL CHARGES
-------------------------------
  0 C s       :     2.904735  s :     2.904735
      pz      :     0.876932  p :     3.046666
      px      :     1.065639
      py      :     1.104095
      dz2     :     0.006782  d :     0.088929
      dxz     :     0.010743
      dyz     :     0.009012
      dx2y2   :     0.028613
      dxy     :     0.033778
  1 C s       :     2.904722  s :     2.904722
      pz      :     0.875313  p :     3.046688
      px      :     1.063704
      py      :     1.107671
      dz2     :     0.007266  d :     0.088922
      dxz     :     0.012847
      dyz     :     0.007390
      dx2y2   :     0.031221
      dxy     :     0.030198
  2 C s       :     2.904690  s :     2.904690
      pz      :     0.878393  p :     3.046722
      px      :     1.080865
      py      :     1.087464
      dz2     :     0.006599  d :     0.088945
      dxz     :     0.006747
      dyz     :     0.012257
      dx2y2   :     0.035877
      dxy     :     0.027465
  3 C s       :     2.904711  s :     2.904711
      pz      :     0.876021  p :     3.046656
      px      :     1.072336
      py      :     1.098298
      dz2     :     0.006997  d :     0.088940
      dxz     :     0.009029
      dyz     :     0.011022
      dx2y2   :     0.026117
      dxy     :     0.035775
  4 C s       :     2.904722  s :     2.904722
      pz      :     0.875599  p :     3.046712
      px      :     1.061121
      py      :     1.109992
      dz2     :     0.007122  d :     0.088929
      dxz     :     0.013627
      dyz     :     0.006503
      dx2y2   :     0.035481
      dxy     :     0.026196
  5 C s       :     2.904749  s :     2.904749
      pz      :     0.877688  p :     3.046620
      px      :     1.074979
      py      :     1.093952
      dz2     :     0.006602  d :     0.088917
      dxz     :     0.007937
      dyz     :     0.011132
      dx2y2   :     0.028111
      dxy     :     0.035135
  6 C s       :     2.904737  s :     2.904737
      pz      :     0.877267  p :     3.046744
      px      :     1.079972
      py      :     1.089505
      dz2     :     0.006683  d :     0.088930
      dxz     :     0.006655
      dyz     :     0.012807
      dx2y2   :     0.033160
      dxy     :     0.029626
  7 H s       :     0.816805  s :     0.816805
  8 H s       :     0.816794  s :     0.816794
  9 H s       :     0.816811  s :     0.816811
 10 H s       :     0.816779  s :     0.816779
 11 H s       :     0.816819  s :     0.816819
 12 H s       :     0.816783  s :     0.816783
 13 H s       :     0.816821  s :     0.816821


                      *****************************
                      * MAYER POPULATION ANALYSIS *
                      *****************************

  NA   - Mulliken gross atomic population
  ZA   - Total nuclear charge
  QA   - Mulliken gross atomic charge
  VA   - Mayer's total valence
  BVA  - Mayer's bonded valence
  FA   - Mayer's free valence

  ATOM       NA         ZA         QA         VA         BVA        FA
  0 C      6.1773     6.0000    -0.1773     3.7151     3.7151     0.0000
  1 C      6.1770     6.0000    -0.1770     3.7151     3.7151     0.0000
  2 C      6.1774     6.0000    -0.1774     3.7148     3.7148    -0.0000
  3 C      6.1772     6.0000    -0.1772     3.7147     3.7147    -0.0000
  4 C      6.1773     6.0000    -0.1773     3.7149     3.7149    -0.0000
  5 C      6.1771     6.0000    -0.1771     3.7152     3.7152     0.0000
  6 C      6.1776     6.0000    -0.1776     3.7148     3.7148    -0.0000
  7 H      0.6798     1.0000     0.3202     0.8653     0.8653     0.0000
  8 H      0.6799     1.0000     0.3201     0.8654     0.8654    -0.0000
  9 H      0.6799     1.0000     0.3201     0.8654     0.8654    -0.0000
 10 H      0.6798     1.0000     0.3202     0.8653     0.8653    -0.0000
 11 H      0.6800     1.0000     0.3200     0.8654     0.8654     0.0000
 12 H      0.6798     1.0000     0.3202     0.8654     0.8654    -0.0000
 13 H      0.6799     1.0000     0.3201     0.8654     0.8654    -0.0000

  Mayer bond orders larger than 0.100000
B(  0-C ,  1-C ) :   1.3775 B(  0-C ,  2-C ) :   1.3774 B(  0-C , 12-H ) :   0.8774 
B(  1-C ,  6-C ) :   1.3774 B(  1-C , 11-H ) :   0.8775 B(  2-C ,  3-C ) :   1.3773 
B(  2-C , 13-H ) :   0.8775 B(  3-C ,  4-C ) :   1.3774 B(  3-C ,  7-H ) :   0.8775 
B(  4-C ,  5-C ) :   1.3775 B(  4-C ,  8-H ) :   0.8775 B(  5-C ,  6-C ) :   1.3774 
B(  5-C ,  9-H ) :   0.8775 B(  6-C , 10-H ) :   0.8774 

-------
TIMINGS
-------

Total SCF time: 0 days 0 hours 0 min 15 sec 

Total time                  ....      15.177 sec
Sum of individual times     ....      15.074 sec  ( 99.3%)

Fock matrix formation       ....      14.218 sec  ( 93.7%)
  Split-RI-J                ....       0.906 sec  (  6.4% of F)
  Chain of spheres X        ....      12.239 sec  ( 86.1% of F)
  XC integration            ....       1.093 sec  (  7.7% of F)
    Basis function eval.    ....       0.477 sec  ( 43.6% of XC)
    Density eval.           ....       0.215 sec  ( 19.6% of XC)
    XC-Functional eval.     ....       0.146 sec  ( 13.3% of XC)
    XC-Potential eval.      ....       0.189 sec  ( 17.3% of XC)
Diagonalization             ....       0.002 sec  (  0.0%)
Density matrix formation    ....       0.001 sec  (  0.0%)
Population analysis         ....       0.002 sec  (  0.0%)
Initial guess               ....       0.002 sec  (  0.0%)
Orbital Transformation      ....       0.000 sec  (  0.0%)
Orbital Orthonormalization  ....       0.001 sec  (  0.0%)
DIIS solution               ....       0.000 sec  (  0.0%)
SOSCF solution              ....       0.004 sec  (  0.0%)
Grid generation             ....       0.845 sec  (  5.6%)

Maximum memory used throughout the entire SCF-calculation: 60.6 MB


-------------------------------------------------------------------------------
                          DFT DISPERSION CORRECTION                            
                                                                               
                              DFTD3 V3.1  Rev 1                                
                          USING Becke-Johnson damping                          
-------------------------------------------------------------------------------
The PBEh-3c composite method is recognized
Using three-body term ABC
Active option DFTDOPT                   ...         4   

molecular C6(AA) [au] = 2267.674144 


            DFT-D V3
 parameters
 s6 scaling factor         :     1.0000 
 a1 scaling factor         :     0.4860 
 s8 scaling factor         :     0.0000 
 a2 scaling factor         :     4.5000 
 Damping factor alpha9(ATM):    16.0000 
 ad hoc parameters k1-k3   :    16.0000     1.3333    -4.0000 

 Edisp/kcal,au: -4.675181930138  -0.007450375850 
 E6   /kcal   :  -4.685913628 
 E8   /kcal   :  -0.000000000 
 E6(ABC)      :   0.010731698 
 % E8         :   0.000000000 
 % E6(ABC)    :  -0.229546100 

-------------------------   ----------------
Dispersion correction           -0.007450376
-------------------------   ----------------

------------------   -----------------
gCP correction             0.018228137
------------------   -----------------

-------------------------   --------------------
FINAL SINGLE POINT ENERGY      -270.051551204489
-------------------------   --------------------

                                *** OPTIMIZATION RUN DONE ***

                            ***************************************
                            *     ORCA property calculations      *
                            ***************************************

                                    ---------------------
                                    Active property flags
                                    ---------------------
   (+) Dipole Moment


------------------------------------------------------------------------------
                       ORCA ELECTRIC PROPERTIES CALCULATION
------------------------------------------------------------------------------

Dipole Moment Calculation                       ... on
Quadrupole Moment Calculation                   ... off
Polarizability Calculation                      ... off
GBWName                                         ... OPT_Ar-4.gbw
Electron density                                ... OPT_Ar-4.scfp
The origin for moment calculation is the CENTER OF MASS  = ( 5.248840, -29.413542 -5.046019)

-------------
DIPOLE MOMENT
-------------
                                X             Y             Z
Electronic contribution:     -0.00074       0.00047      -0.00215
Nuclear contribution   :      0.00111      -0.00041       0.00291
                        -----------------------------------------
Total Dipole Moment    :      0.00037       0.00006       0.00076
                        -----------------------------------------
Magnitude (a.u.)       :      0.00085
Magnitude (Debye)      :      0.00215



--------------------
Rotational spectrum 
--------------------
 
Rotational constants in cm-1:     0.126616     0.126602     0.063304 
Rotational constants in MHz :  3795.847663  3795.430792  1897.821020 

 Dipole components along the rotational axes: 
x,y,z [a.u.] :     0.000029     0.000168     0.000829 
x,y,z [Debye]:     0.000074     0.000427     0.002107 

 

Timings for individual modules:

Sum of individual times         ...      343.544 sec (=   5.726 min)
GTO integral calculation        ...        1.966 sec (=   0.033 min)   0.6 %
SCF iterations                  ...      270.219 sec (=   4.504 min)  78.7 %
SCF Gradient evaluation         ...       71.053 sec (=   1.184 min)  20.7 %
Geometry relaxation             ...        0.306 sec (=   0.005 min)   0.1 %
                             ****ORCA TERMINATED NORMALLY****
TOTAL RUN TIME: 0 days 0 hours 5 minutes 44 seconds 606 msec
