
                                 *****************
                                 * O   R   C   A *
                                 *****************

                                            #,                                       
                                            ###                                      
                                            ####                                     
                                            #####                                    
                                            ######                                   
                                           ########,                                 
                                     ,,################,,,,,                         
                               ,,#################################,,                 
                          ,,##########################################,,             
                       ,#########################################, ''#####,          
                    ,#############################################,,   '####,        
                  ,##################################################,,,,####,       
                ,###########''''           ''''###############################       
              ,#####''   ,,,,##########,,,,          '''####'''          '####       
            ,##' ,,,,###########################,,,                        '##       
           ' ,,###''''                  '''############,,,                           
         ,,##''                                '''############,,,,        ,,,,,,###''
      ,#''                                            '''#######################'''  
     '                                                          ''''####''''         
             ,#######,   #######,   ,#######,      ##                                
            ,#'     '#,  ##    ##  ,#'     '#,    #''#        ######   ,####,        
            ##       ##  ##   ,#'  ##            #'  '#       #        #'  '#        
            ##       ##  #######   ##           ,######,      #####,   #    #        
            '#,     ,#'  ##    ##  '#,     ,#' ,#      #,         ##   #,  ,#        
             '#######'   ##     ##  '#######'  #'      '#     #####' # '####'        



                  #######################################################
                  #                        -***-                        #
                  #          Department of theory and spectroscopy      #
                  #    Directorship and core code : Frank Neese         #
                  #        Max Planck Institute fuer Kohlenforschung    #
                  #                Kaiser Wilhelm Platz 1               #
                  #                 D-45470 Muelheim/Ruhr               #
                  #                      Germany                        #
                  #                                                     #
                  #                  All rights reserved                #
                  #                        -***-                        #
                  #######################################################


                         Program Version 5.0.2 -  RELEASE  -


 With contributions from (in alphabetic order):
   Daniel Aravena         : Magnetic Suceptibility
   Michael Atanasov       : Ab Initio Ligand Field Theory (pilot matlab implementation)
   Alexander A. Auer      : GIAO ZORA, VPT2 properties, NMR spectrum
   Ute Becker             : Parallelization
   Giovanni Bistoni       : ED, misc. LED, open-shell LED, HFLD
   Martin Brehm           : Molecular dynamics
   Dmytro Bykov           : SCF Hessian
   Vijay G. Chilkuri      : MRCI spin determinant printing, contributions to CSF-ICE
   Dipayan Datta          : RHF DLPNO-CCSD density
   Achintya Kumar Dutta   : EOM-CC, STEOM-CC
   Dmitry Ganyushin       : Spin-Orbit,Spin-Spin,Magnetic field MRCI
   Miquel Garcia          : C-PCM and meta-GGA Hessian, CC/C-PCM, Gaussian charge scheme
   Yang Guo               : DLPNO-NEVPT2, F12-NEVPT2, CIM, IAO-localization
   Andreas Hansen         : Spin unrestricted coupled pair/coupled cluster methods
   Benjamin Helmich-Paris : MC-RPA, TRAH-SCF, COSX integrals
   Lee Huntington         : MR-EOM, pCC
   Robert Izsak           : Overlap fitted RIJCOSX, COSX-SCS-MP3, EOM
   Marcus Kettner         : VPT2
   Christian Kollmar      : KDIIS, OOCD, Brueckner-CCSD(T), CCSD density, CASPT2, CASPT2-K
   Simone Kossmann        : Meta GGA functionals, TD-DFT gradient, OOMP2, MP2 Hessian
   Martin Krupicka        : Initial AUTO-CI
   Lucas Lang             : DCDCAS
   Marvin Lechner         : AUTO-CI (C++ implementation), FIC-MRCC
   Dagmar Lenk            : GEPOL surface, SMD
   Dimitrios Liakos       : Extrapolation schemes; Compound Job, initial MDCI parallelization
   Dimitrios Manganas     : Further ROCIS development; embedding schemes
   Dimitrios Pantazis     : SARC Basis sets
   Anastasios Papadopoulos: AUTO-CI, single reference methods and gradients
   Taras Petrenko         : DFT Hessian,TD-DFT gradient, ASA, ECA, R-Raman, ABS, FL, XAS/XES, NRVS
   Peter Pinski           : DLPNO-MP2, DLPNO-MP2 Gradient
   Christoph Reimann      : Effective Core Potentials
   Marius Retegan         : Local ZFS, SOC
   Christoph Riplinger    : Optimizer, TS searches, QM/MM, DLPNO-CCSD(T), (RO)-DLPNO pert. Triples
   Tobias Risthaus        : Range-separated hybrids, TD-DFT gradient, RPA, STAB
   Michael Roemelt        : Original ROCIS implementation
   Masaaki Saitow         : Open-shell DLPNO-CCSD energy and density
   Barbara Sandhoefer     : DKH picture change effects
   Avijit Sen             : IP-ROCIS
   Kantharuban Sivalingam : CASSCF convergence, NEVPT2, FIC-MRCI
   Bernardo de Souza      : ESD, SOC TD-DFT
   Georgi Stoychev        : AutoAux, RI-MP2 NMR, DLPNO-MP2 response
   Willem Van den Heuvel  : Paramagnetic NMR
   Boris Wezisla          : Elementary symmetry handling
   Frank Wennmohs         : Technical directorship


 We gratefully acknowledge several colleagues who have allowed us to
 interface, adapt or use parts of their codes:
   Stefan Grimme, W. Hujo, H. Kruse, P. Pracht,  : VdW corrections, initial TS optimization,
                  C. Bannwarth, S. Ehlert          DFT functionals, gCP, sTDA/sTD-DF
   Ed Valeev, F. Pavosevic, A. Kumar             : LibInt (2-el integral package), F12 methods
   Garnet Chan, S. Sharma, J. Yang, R. Olivares  : DMRG
   Ulf Ekstrom                                   : XCFun DFT Library
   Mihaly Kallay                                 : mrcc  (arbitrary order and MRCC methods)
   Jiri Pittner, Ondrej Demel                    : Mk-CCSD
   Frank Weinhold                                : gennbo (NPA and NBO analysis)
   Christopher J. Cramer and Donald G. Truhlar   : smd solvation model
   Lars Goerigk                                  : TD-DFT with DH, B97 family of functionals
   V. Asgeirsson, H. Jonsson                     : NEB implementation
   FAccTs GmbH                                   : IRC, NEB, NEB-TS, DLPNO-Multilevel, CI-OPT
                                                   MM, QMMM, 2- and 3-layer-ONIOM, Crystal-QMMM,
                                                   LR-CPCM, SF, NACMEs, symmetry and pop. for TD-DFT,
                                                   nearIR, NL-DFT gradient (VV10), updates on ESD,
                                                   ML-optimized integration grids
   S Lehtola, MJT Oliveira, MAL Marques          : LibXC Library
   Liviu Ungur et al                             : ANISO software


 Your calculation uses the libint2 library for the computation of 2-el integrals
 For citations please refer to: http://libint.valeyev.net

 Your ORCA version has been built with support for libXC version: 5.1.0
 For citations please refer to: https://tddft.org/programs/libxc/

 This ORCA versions uses:
   CBLAS   interface :  Fast vector & matrix operations
   LAPACKE interface :  Fast linear algebra routines
   SCALAPACK package :  Parallel linear algebra routines
   Shared memory     :  Shared parallel matrices
   BLAS/LAPACK       :  OpenBLAS 0.3.15  USE64BITINT DYNAMIC_ARCH NO_AFFINITY Haswell SINGLE_THREADED
        Core in use  :  Haswell
   Copyright (c) 2011-2014, The OpenBLAS Project




***************************************
The coordinates will be read from file: A.xyz
***************************************


Your calculation utilizes the geometrical counterpoise correction gCP
Please cite in your paper:
H.Kruse, S. Grimme J.Chem.Phys., 136, (2012), 154101 
   

Your calculation utilizes the atom-pairwise dispersion correction
with the Becke-Johnson damping scheme (D3BJ)
Cite in your paper:
S.Grimme, S.Ehrlich, L.Goerigk, J Comput Chem, (2011), 32, 1456–1465 
S.Grimme, J.Antony, S.Ehrlich and H.Krieg, J.Chem.Phys., 132, (2010), 154104 
   

Your calculation employs the composite approach PBEh-3c.
Please cite in your paper:
S. Grimme, J. G. Brandenburg, C. Bannwarth, A. Hansen J.Chem.Phys., 143, (2015), 054107 
   

================================================================================

----- Orbital basis set information -----
Your calculation utilizes the basis: def2-mSVP

----- AuxJ basis set information -----
Your calculation utilizes the auxiliary basis: def2/J
   F. Weigend, Phys. Chem. Chem. Phys. 8, 1057 (2006).

================================================================================
                                        WARNINGS
                       Please study these warnings very carefully!
================================================================================


WARNING: Geometry Optimization
  ===> : Switching off AutoStart
         For restart on a previous wavefunction, please use MOREAD

INFO   : the flag for use of the SHARK integral package has been found!

================================================================================
                                       INPUT FILE
================================================================================
NAME = OPT_A.inp
|  1> ! PBEh-3c Opt
|  2> 
|  3> *xyzfile 0 1 A.xyz
|  4> 
|  5>                          ****END OF INPUT****
================================================================================

                       *****************************
                       * Geometry Optimization Run *
                       *****************************

Geometry optimization settings:
Update method            Update   .... BFGS
Choice of coordinates    CoordSys .... Z-matrix Internals
Initial Hessian          InHess   .... Almoef's Model

Convergence Tolerances:
Energy Change            TolE     ....  5.0000e-06 Eh
Max. Gradient            TolMAXG  ....  3.0000e-04 Eh/bohr
RMS Gradient             TolRMSG  ....  1.0000e-04 Eh/bohr
Max. Displacement        TolMAXD  ....  4.0000e-03 bohr
RMS Displacement         TolRMSD  ....  2.0000e-03 bohr
Strict Convergence                ....  False
------------------------------------------------------------------------------
                        ORCA OPTIMIZATION COORDINATE SETUP
------------------------------------------------------------------------------

The optimization will be done in new redundant internal coordinates
Making redundant internal coordinates   ...  (new redundants) done
Evaluating the initial hessian          ...  (Almloef) done
Evaluating the coordinates              ...  done
Calculating the B-matrix                .... done
Calculating the G-matrix                .... done
Diagonalizing the G-matrix              .... done
The first mode is                       ....   42
The number of degrees of freedom        ....   30

    -----------------------------------------------------------------
                    Redundant Internal Coordinates


    -----------------------------------------------------------------
         Definition                    Initial Value    Approx d2E/dq
    -----------------------------------------------------------------
      1. B(C   1,C   0)                  1.5279         0.376467   
      2. B(C   2,C   0)                  1.5279         0.376472   
      3. B(C   3,C   1)                  1.5279         0.376462   
      4. B(C   3,C   2)                  1.5279         0.376467   
      5. B(H   4,C   0)                  1.1157         0.327651   
      6. B(H   5,C   0)                  1.1106         0.333816   
      7. B(H   6,C   1)                  1.1157         0.327656   
      8. B(H   7,C   1)                  1.1106         0.333818   
      9. B(H   8,C   2)                  1.1106         0.333827   
     10. B(H   9,C   2)                  1.1157         0.327646   
     11. B(H  10,C   3)                  1.1157         0.327636   
     12. B(H  11,C   3)                  1.1106         0.333822   
     13. A(C   1,C   0,H   5)          118.7617         0.320721   
     14. A(C   1,C   0,H   4)          108.5534         0.319745   
     15. A(C   2,C   0,H   5)          118.7622         0.320721   
     16. A(C   1,C   0,C   2)           87.6481         0.364312   
     17. A(C   2,C   0,H   4)          108.5534         0.319746   
     18. A(H   4,C   0,H   5)          111.9997         0.283211   
     19. A(H   6,C   1,H   7)          112.0006         0.283212   
     20. A(C   3,C   1,H   7)          118.7617         0.320720   
     21. A(C   0,C   1,H   7)          118.7618         0.320721   
     22. A(C   3,C   1,H   6)          108.5529         0.319745   
     23. A(C   0,C   1,H   6)          108.5534         0.319746   
     24. A(C   0,C   1,C   3)           87.6479         0.364310   
     25. A(C   0,C   2,H   8)          118.7623         0.320723   
     26. A(C   0,C   2,C   3)           87.6481         0.364312   
     27. A(C   3,C   2,H   9)          108.5524         0.319744   
     28. A(C   0,C   2,H   9)          108.5530         0.319745   
     29. A(C   3,C   2,H   8)          118.7621         0.320722   
     30. A(H   8,C   2,H   9)          112.0003         0.283212   
     31. A(H  10,C   3,H  11)          112.0003         0.283210   
     32. A(C   2,C   3,H  11)          118.7627         0.320721   
     33. A(C   1,C   3,H  11)          118.7617         0.320721   
     34. A(C   2,C   3,H  10)          108.5531         0.319743   
     35. A(C   1,C   3,H  10)          108.5528         0.319742   
     36. A(C   1,C   3,C   2)           87.6478         0.364310   
     37. D(H   6,C   1,C   0,H   5)     35.9033         0.011307   
     38. D(H   7,C   1,C   0,C   2)    144.6938         0.011307   
     39. D(H   7,C   1,C   0,H   4)     35.9020         0.011307   
     40. D(H   6,C   1,C   0,H   4)    165.3211         0.011307   
     41. D(H   6,C   1,C   0,C   2)    -85.8871         0.011307   
     42. D(C   3,C   1,C   0,H   5)    144.6945         0.011307   
     43. D(C   3,C   1,C   0,H   4)    -85.8877         0.011307   
     44. D(C   3,C   1,C   0,C   2)     22.9041         0.011307   
     45. D(H   7,C   1,C   0,H   5)    -93.5159         0.011307   
     46. D(H   8,C   2,C   0,H   5)     93.5156         0.011307   
     47. D(C   3,C   2,C   0,H   5)   -144.6940         0.011307   
     48. D(C   3,C   2,C   0,H   4)     85.8877         0.011307   
     49. D(C   3,C   2,C   0,C   1)    -22.9042         0.011307   
     50. D(H   8,C   2,C   0,H   4)    -35.9028         0.011307   
     51. D(H   9,C   2,C   0,H   5)    -35.9033         0.011307   
     52. D(H   9,C   2,C   0,H   4)   -165.3216         0.011307   
     53. D(H   9,C   2,C   0,C   1)     85.8865         0.011307   
     54. D(H   8,C   2,C   0,C   1)   -144.6946         0.011307   
     55. D(C   1,C   3,C   2,H   9)    -85.8872         0.011307   
     56. D(C   1,C   3,C   2,H   8)    144.6947         0.011307   
     57. D(C   1,C   3,C   2,C   0)     22.9041         0.011307   
     58. D(H  11,C   3,C   1,H   6)    -35.9032         0.011307   
     59. D(H  11,C   3,C   1,C   0)   -144.6948         0.011307   
     60. D(H  10,C   3,C   1,H   7)    -35.9025         0.011307   
     61. D(H  10,C   3,C   1,H   6)   -165.3211         0.011307   
     62. D(H  11,C   3,C   1,H   7)     93.5155         0.011307   
     63. D(H  10,C   3,C   1,C   0)     85.8872         0.011307   
     64. D(C   2,C   3,C   1,H   7)   -144.6938         0.011307   
     65. D(C   2,C   3,C   1,H   6)     85.8876         0.011307   
     66. D(H  10,C   3,C   2,C   0)    -85.8869         0.011307   
     67. D(C   2,C   3,C   1,C   0)    -22.9041         0.011307   
     68. D(H  11,C   3,C   2,H   9)     35.9026         0.011307   
     69. D(H  11,C   3,C   2,H   8)    -93.5154         0.011307   
     70. D(H  11,C   3,C   2,C   0)    144.6939         0.011307   
     71. D(H  10,C   3,C   2,H   9)    165.3218         0.011307   
     72. D(H  10,C   3,C   2,H   8)     35.9037         0.011307   
    -----------------------------------------------------------------

Number of atoms                         .... 12
Number of degrees of freedom            .... 72

         *************************************************************
         *                GEOMETRY OPTIMIZATION CYCLE   1            *
         *************************************************************
---------------------------------
CARTESIAN COORDINATES (ANGSTROEM)
---------------------------------
  C     -5.104490    1.668660    0.142630
  C     -5.058380    0.147540    0.006440
  C     -3.586490    1.667240   -0.030990
  C     -3.596470    0.215540    0.445400
  H     -5.340290    1.923160    1.203020
  H     -5.723630    2.250700   -0.572490
  H     -5.091690   -0.112970   -1.077910
  H     -5.767660   -0.464180    0.603280
  H     -2.983460    2.410450    0.532460
  H     -3.353960    1.681200   -1.122110
  H     -3.559900    0.207580    1.560490
  H     -2.871090   -0.498000    0.000230

----------------------------
CARTESIAN COORDINATES (A.U.)
----------------------------
  NO LB      ZA    FRAG     MASS         X           Y           Z
   0 C     6.0000    0    12.011   -9.646088    3.153310    0.269532
   1 C     6.0000    0    12.011   -9.558953    0.278810    0.012170
   2 C     6.0000    0    12.011   -6.777484    3.150627   -0.058563
   3 C     6.0000    0    12.011   -6.796343    0.407312    0.841684
   4 H     1.0000    0     1.008  -10.091686    3.634246    2.273378
   5 H     1.0000    0     1.008  -10.816093    4.253207   -1.081849
   6 H     1.0000    0     1.008   -9.621900   -0.213482   -2.036955
   7 H     1.0000    0     1.008  -10.899298   -0.877173    1.140034
   8 H     1.0000    0     1.008   -5.637922    4.555090    1.006204
   9 H     1.0000    0     1.008   -6.338066    3.177008   -2.120481
  10 H     1.0000    0     1.008   -6.727236    0.392269    2.948899
  11 H     1.0000    0     1.008   -5.425574   -0.941084    0.000435

--------------------------------
INTERNAL COORDINATES (ANGSTROEM)
--------------------------------
 C      0   0   0     0.000000000000     0.00000000     0.00000000
 C      1   0   0     1.527900488448     0.00000000     0.00000000
 C      1   2   0     1.527897221936    87.64808207     0.00000000
 C      3   1   2     1.527900494960    87.64811206   337.09584092
 H      1   2   3     1.115705535569   108.55342546   251.20820291
 H      1   2   3     1.110631133905   118.76166637   121.79035098
 H      2   1   3     1.115701545531   108.55336594   274.11291238
 H      2   1   3     1.110629309176   118.76179309   144.69379138
 H      3   1   2     1.110622432467   118.76232493   215.30541442
 H      3   1   2     1.115709611368   108.55299496    85.88653803
 H      4   3   1     1.115717900995   108.55307031   274.11311053
 H      4   3   1     1.110626762193   118.76268175   144.69394137

---------------------------
INTERNAL COORDINATES (A.U.)
---------------------------
 C      0   0   0     0.000000000000     0.00000000     0.00000000
 C      1   0   0     2.887313483051     0.00000000     0.00000000
 C      1   2   0     2.887307310238    87.64808207     0.00000000
 C      3   1   2     2.887313495358    87.64811206   337.09584092
 H      1   2   3     2.108377908326   108.55342546   251.20820291
 H      1   2   3     2.098788678888   118.76166637   121.79035098
 H      2   1   3     2.108370368246   108.55336594   274.11291238
 H      2   1   3     2.098785230648   118.76179309   144.69379138
 H      3   1   2     2.098772235553   118.76232493   215.30541442
 H      3   1   2     2.108385610470   108.55299496    85.88653803
 H      4   3   1     2.108401275593   108.55307031   274.11311053
 H      4   3   1     2.098780417549   118.76268175   144.69394137

---------------------
BASIS SET INFORMATION
---------------------
There are 2 groups of distinct atoms

 Group   1 Type C   : 8s4p1d contracted to 4s2p1d pattern {5111/31/1}
 Group   2 Type H   : 4s contracted to 2s pattern {31}

Atom   0C    basis set group =>   1
Atom   1C    basis set group =>   1
Atom   2C    basis set group =>   1
Atom   3C    basis set group =>   1
Atom   4H    basis set group =>   2
Atom   5H    basis set group =>   2
Atom   6H    basis set group =>   2
Atom   7H    basis set group =>   2
Atom   8H    basis set group =>   2
Atom   9H    basis set group =>   2
Atom  10H    basis set group =>   2
Atom  11H    basis set group =>   2
---------------------------------
AUXILIARY/J BASIS SET INFORMATION
---------------------------------
There are 2 groups of distinct atoms

 Group   1 Type C   : 12s5p4d2f1g contracted to 6s4p3d1f1g pattern {711111/2111/211/2/1}
 Group   2 Type H   : 5s2p1d contracted to 3s1p1d pattern {311/2/1}

Atom   0C    basis set group =>   1
Atom   1C    basis set group =>   1
Atom   2C    basis set group =>   1
Atom   3C    basis set group =>   1
Atom   4H    basis set group =>   2
Atom   5H    basis set group =>   2
Atom   6H    basis set group =>   2
Atom   7H    basis set group =>   2
Atom   8H    basis set group =>   2
Atom   9H    basis set group =>   2
Atom  10H    basis set group =>   2
Atom  11H    basis set group =>   2
------------------------------------------------------------------------------
                           ORCA GTO INTEGRAL CALCULATION
                           -- RI-GTO INTEGRALS CHOSEN --
------------------------------------------------------------------------------
------------------------------------------------------------------------------
                   ___                                                        
                  /   \      - P O W E R E D   B Y -                         
                 /     \                                                     
                 |  |  |   _    _      __       _____    __    __             
                 |  |  |  | |  | |    /  \     |  _  \  |  |  /  |          
                  \  \/   | |  | |   /    \    | | | |  |  | /  /          
                 / \  \   | |__| |  /  /\  \   | |_| |  |  |/  /          
                |  |  |   |  __  | /  /__\  \  |    /   |      \           
                |  |  |   | |  | | |   __   |  |    \   |  |\   \          
                \     /   | |  | | |  |  |  |  | |\  \  |  | \   \       
                 \___/    |_|  |_| |__|  |__|  |_| \__\ |__|  \__/        
                                                                              
                      - O R C A' S   B I G   F R I E N D -                    
                                      &                                       
                       - I N T E G R A L  F E E D E R -                       
                                                                              
 v1 FN, 2020, v2 2021                                                         
------------------------------------------------------------------------------


Reading SHARK input file OPT_A.SHARKINP.tmp ... ok
----------------------
SHARK INTEGRAL PACKAGE
----------------------

Number of atoms                             ...     12
Number of basis functions                   ...     76
Number of shells                            ...     44
Maximum angular momentum                    ...      2
Integral batch strategy                     ... SHARK/LIBINT Hybrid
RI-J (if used) integral strategy            ... SPLIT-RIJ (Revised 2003 algorithm where possible)
Printlevel                                  ...      1
Contraction scheme used                     ... SEGMENTED contraction
Coulomb Range Separation                    ... NOT USED
Exchange Range Separation                   ... NOT USED
Finite Nucleus Model                        ... NOT USED
Auxiliary Coulomb fitting basis             ... AVAILABLE
   # of basis functions in Aux-J            ...    284
   # of shells in Aux-J                     ...    100
   Maximum angular momentum in Aux-J        ...      4
Auxiliary J/K fitting basis                 ... NOT available
Auxiliary Correlation fitting basis         ... NOT available
Auxiliary 'external' fitting basis          ... NOT available
Integral threshold                          ...     2.500000e-11
Primitive cut-off                           ...     2.500000e-12
Primitive pair pre-selection threshold      ...     2.500000e-12

Calculating pre-screening integrals         ... done (  0.1 sec) Dimension = 44
Organizing shell pair data                  ... done (  0.0 sec)
Shell pair information
Total number of shell pairs                 ...       990
Shell pairs after pre-screening             ...       978
Total number of primitive shell pairs       ...      3646
Primitive shell pairs kept                  ...      2864
          la=0 lb=0:    516 shell pairs
          la=1 lb=0:    256 shell pairs
          la=1 lb=1:     36 shell pairs
          la=2 lb=0:    128 shell pairs
          la=2 lb=1:     32 shell pairs
          la=2 lb=2:     10 shell pairs

Calculating one electron integrals          ... done (  0.0 sec)
Calculating RI/J V-Matrix + Cholesky decomp.... done (  0.0 sec)
Calculating Nuclear repulsion               ... done (  0.0 sec) ENN=    128.156900202929 Eh

SHARK setup successfully completed in   0.3 seconds

Maximum memory used throughout the entire GTOINT-calculation: 9.7 MB
-------------------------------------------------------------------------------
                                 ORCA SCF
-------------------------------------------------------------------------------

------------
SCF SETTINGS
------------
Hamiltonian:
 Density Functional     Method          .... DFT(GTOs)
 Exchange Functional    Exchange        .... PBE
   PBE kappa parameter   XKappa         ....  1.024500
   PBE mue parameter    XMuePBE         ....  0.123457
 Correlation Functional Correlation     .... PBE
   PBE beta parameter  CBetaPBE         ....  0.030000
 LDA part of GGA corr.  LDAOpt          .... PW91-LDA
 Gradients option       PostSCFGGA      .... off
 Hybrid DFT is turned on
   Fraction HF Exchange ScalHFX         ....  0.420000
   Scaling of DF-GGA-X  ScalDFX         ....  0.580000
   Scaling of DF-GGA-C  ScalDFC         ....  1.000000
   Scaling of DF-LDA-C  ScalLDAC        ....  1.000000
   Perturbative correction              ....  0.000000
   Density functional embedding theory  .... OFF
 RI-approximation to the Coulomb term is turned on
   Number of AuxJ basis functions       .... 284
   RIJ-ON(X) (HFX calculated with O(N)) .... on
   Number of AuxJ basis functions       .... 284
   RIJ-COSX (HFX calculated with COS-X)).... on


General Settings:
 Integral files         IntName         .... OPT_A
 Hartree-Fock type      HFTyp           .... RHF
 Total Charge           Charge          ....    0
 Multiplicity           Mult            ....    1
 Number of Electrons    NEL             ....   32
 Basis Dimension        Dim             ....   76
 Nuclear Repulsion      ENuc            ....    128.1569002029 Eh

Convergence Acceleration:
 DIIS                   CNVDIIS         .... on
   Start iteration      DIISMaxIt       ....    12
   Startup error        DIISStart       ....  0.200000
   # of expansion vecs  DIISMaxEq       ....     5
   Bias factor          DIISBfac        ....   1.050
   Max. coefficient     DIISMaxC        ....  10.000
 Trust-Rad. Augm. Hess. CNVTRAH         .... auto
   Auto Start mean grad. ratio tolernc. ....  1.125000
   Auto Start start iteration           ....    20
   Auto Start num. interpolation iter.  ....    10
   Max. Number of Micro iterations      ....    16
   Max. Number of Macro iterations      .... Maxiter - #DIIS iter
   Number of Davidson start vectors     ....     2
   Converg. threshold I  (grad. norm)   ....   1.000e-05
   Converg. threshold II (energy diff.) ....   1.000e-08
   Grad. Scal. Fac. for Micro threshold ....   0.100
   Minimum threshold for Micro iter.    ....   0.010
   NR start threshold (gradient norm)   ....   0.001
   Initial trust radius                 ....   0.400
   Minimum AH scaling param. (alpha)    ....   1.000
   Maximum AH scaling param. (alpha)    .... 1000.000
   Orbital update algorithm             .... Taylor
   White noise on init. David. guess    .... on
   Maximum white noise                  ....   0.010
   Quad. conv. algorithm                .... NR
   COSX micro iterations for RIJONX calc.... off
 SOSCF                  CNVSOSCF        .... on
   Start iteration      SOSCFMaxIt      ....   150
   Startup grad/error   SOSCFStart      ....  0.003300
 Level Shifting         CNVShift        .... on
   Level shift para.    LevelShift      ....    0.2500
   Turn off err/grad.   ShiftErr        ....    0.0010
 Zerner damping         CNVZerner       .... off
 Static damping         CNVDamp         .... on
   Fraction old density DampFac         ....    0.7000
   Max. Damping (<1)    DampMax         ....    0.9800
   Min. Damping (>=0)   DampMin         ....    0.0000
   Turn off err/grad.   DampErr         ....    0.1000
 Fernandez-Rico         CNVRico         .... off

SCF Procedure:
 Maximum # iterations   MaxIter         ....   125
 SCF integral mode      SCFMode         .... Direct
   Integral package                     .... SHARK and LIBINT hybrid scheme
 Reset frequency        DirectResetFreq ....    20
 Integral Threshold     Thresh          ....  2.500e-11 Eh
 Primitive CutOff       TCut            ....  2.500e-12 Eh

Convergence Tolerance:
 Convergence Check Mode ConvCheckMode   .... Total+1el-Energy
 Convergence forced     ConvForced      .... 0
 Energy Change          TolE            ....  1.000e-08 Eh
 1-El. energy change                    ....  1.000e-05 Eh
 Orbital Gradient       TolG            ....  1.000e-05
 Orbital Rotation angle TolX            ....  1.000e-05
 DIIS Error             TolErr          ....  5.000e-07


Diagonalization of the overlap matrix:
Smallest eigenvalue                        ... 5.152e-03
Time for diagonalization                   ...    0.016 sec
Threshold for overlap eigenvalues          ... 1.000e-08
Number of eigenvalues below threshold      ... 0
Time for construction of square roots      ...    0.000 sec
Total time needed                          ...    0.016 sec

--------------------------------
INITIAL GUESS: MINIMAL BASIS EHT
--------------------------------
The minimal basis has 28 functions
EHT matrix was diagonalized
Basis set overlap was calculated now projecting the orbitals
Using GuessMode=FMatrix for the initial guess
C*T matrix was formed
Effective Fockian was calculated
Effective Fockian was diagonalized
Initial density was built
                      ------------------
                      INITIAL GUESS DONE
                      ------------------
-------------------
DFT GRID GENERATION
-------------------

General Integration Accuracy     IntAcc      ... 4.159
Radial Grid Type                 RadialGrid  ... OptM3 with GC (2021)
Angular Grid (max. ang.)         AngularGrid ... 3 (Lebedev-194)
Angular grid pruning method      GridPruning ... 4 (adaptive)
Weight generation scheme         WeightScheme... Becke
Basis function cutoff            BFCut       ... 1.0000e-11
Integration weight cutoff        WCut        ... 1.0000e-14
Angular grids for H and He will be reduced by one unit
Partially contracted basis set               ... off
Rotationally invariant grid construction     ... off

Total number of grid points                  ...    24387
Total number of batches                      ...      385
Average number of points per batch           ...       63
Average number of grid points per atom       ...     2032
Time for grid setup =    0.346 sec

--------------------
COSX GRID GENERATION
--------------------

GRIDX 1
-------
General Integration Accuracy     IntAcc      ... 3.816
Radial Grid Type                 RadialGrid  ... OptM3 with GC (2021)
Angular Grid (max. ang.)         AngularGrid ... 1 (Lebedev-50)
Angular grid pruning method      GridPruning ... 4 (adaptive)
Weight generation scheme         WeightScheme... Becke
Basis function cutoff            BFCut       ... 1.0000e-11
Integration weight cutoff        WCut        ... 1.0000e-14
Angular grids for H and He will be reduced by one unit
Partially contracted basis set               ... on
Rotationally invariant grid construction     ... off

Total number of grid points                  ...     6409
Total number of batches                      ...      108
Average number of points per batch           ...       59
Average number of grid points per atom       ...      534
UseSFitting                                  ... on

GRIDX 2
-------
General Integration Accuracy     IntAcc      ... 4.020
Radial Grid Type                 RadialGrid  ... OptM3 with GC (2021)
Angular Grid (max. ang.)         AngularGrid ... 2 (Lebedev-110)
Angular grid pruning method      GridPruning ... 4 (adaptive)
Weight generation scheme         WeightScheme... Becke
Basis function cutoff            BFCut       ... 1.0000e-11
Integration weight cutoff        WCut        ... 1.0000e-14
Angular grids for H and He will be reduced by one unit
Partially contracted basis set               ... on
Rotationally invariant grid construction     ... off

Total number of grid points                  ...    13337
Total number of batches                      ...      216
Average number of points per batch           ...       61
Average number of grid points per atom       ...     1111
UseSFitting                                  ... on

GRIDX 3
-------
General Integration Accuracy     IntAcc      ... 4.338
Radial Grid Type                 RadialGrid  ... OptM3 with GC (2021)
Angular Grid (max. ang.)         AngularGrid ... 3 (Lebedev-194)
Angular grid pruning method      GridPruning ... 4 (adaptive)
Weight generation scheme         WeightScheme... Becke
Basis function cutoff            BFCut       ... 1.0000e-11
Integration weight cutoff        WCut        ... 1.0000e-14
Angular grids for H and He will be reduced by one unit
Partially contracted basis set               ... on
Rotationally invariant grid construction     ... off

Total number of grid points                  ...    29226
Total number of batches                      ...      462
Average number of points per batch           ...       63
Average number of grid points per atom       ...     2436
UseSFitting                                  ... on

Time for X-Grid setup             =    0.937 sec

--------------
SCF ITERATIONS
--------------
ITER       Energy         Delta-E        Max-DP      RMS-DP      [F,P]     Damp
               ***  Starting incremental Fock matrix formation  ***
  0   -156.5615783642   0.000000000000 0.02595370  0.00249112  0.3773359 0.7000
  1   -156.6527370071  -0.091158642968 0.01892625  0.00197103  0.2671977 0.7000
                               ***Turning on DIIS***
  2   -156.7175669714  -0.064829964241 0.01328202  0.00148055  0.1882429 0.7000
  3   -156.7634572704  -0.045890298999 0.01026017  0.00115557  0.1323925 0.7000
  4   -156.7959734058  -0.032516135447 0.02646682  0.00288106  0.0925977 0.0000
                      *** Initiating the SOSCF procedure ***
                           *** Shutting down DIIS ***
                      *** Re-Reading the Fockian *** 
                      *** Removing any level shift *** 
ITER      Energy       Delta-E        Grad      Rot      Max-DP    RMS-DP
  5   -156.87350817  -0.0775347640  0.001227  0.001227  0.001695  0.000163
               *** Restarting incremental Fock matrix formation ***
  6   -156.87364111  -0.0001329425  0.001063  0.001191  0.001072  0.000126
  7   -156.87364653  -0.0000054168  0.000443  0.000383  0.000519  0.000044
  8   -156.87365012  -0.0000035917  0.000035  0.000053  0.000132  0.000007
  9   -156.87365014  -0.0000000220  0.000003  0.000005  0.000005  0.000001
                  ***Gradient check signals convergence***
              ***Rediagonalizing the Fockian in SOSCF/NRSCF***

               *****************************************************
               *                     SUCCESS                       *
               *           SCF CONVERGED AFTER  10 CYCLES          *
               *****************************************************

Old exchange energy                            =     -9.888802277 Eh
New exchange energy                            =     -9.888818569 Eh
Exchange energy change after final integration =     -0.000016292 Eh
Total energy after final integration           =   -156.873666436 Eh
Final COS-X integration done in                =     3.533 sec

----------------
TOTAL SCF ENERGY
----------------

Total Energy       :         -156.87366644 Eh           -4268.74948 eV

Components:
Nuclear Repulsion  :          128.15690020 Eh            3487.32655 eV
Electronic Energy  :         -285.03056664 Eh           -7756.07603 eV
One Electron Energy:         -463.55853447 Eh          -12614.06901 eV
Two Electron Energy:          178.52796783 Eh            4857.99298 eV
Max COSX asymmetry :            0.00000280 Eh               0.00008 eV

Virial components:
Potential Energy   :         -312.31699008 Eh           -8498.57736 eV
Kinetic Energy     :          155.44332364 Eh            4229.82788 eV
Virial Ratio       :            2.00920170


DFT components:
N(Alpha)           :       15.999942488523 electrons
N(Beta)            :       15.999942488523 electrons
N(Total)           :       31.999884977047 electrons
E(X)               :      -13.103817638491 Eh       
E(C)               :       -1.353407948618 Eh       
E(XC)              :      -14.457225587110 Eh       
DFET-embed. en.    :        0.000000000000 Eh       

---------------
SCF CONVERGENCE
---------------

  Last Energy change         ...   -1.6146e-09  Tolerance :   1.0000e-08
  Last MAX-Density change    ...    6.9389e-16  Tolerance :   1.0000e-07
  Last RMS-Density change    ...    3.8510e-17  Tolerance :   5.0000e-09
  Last Orbital Gradient      ...    7.1896e-07  Tolerance :   1.0000e-05
  Last Orbital Rotation      ...    7.0787e-07  Tolerance :   1.0000e-05

             **** THE GBW FILE WAS UPDATED (OPT_A.gbw) ****
             **** DENSITY OPT_A.scfp WAS UPDATED ****
             **** ENERGY FILE WAS UPDATED (OPT_A.en.tmp) ****
             **** THE GBW FILE WAS UPDATED (OPT_A.gbw) ****
             **** DENSITY OPT_A.scfp WAS UPDATED ****
----------------
ORBITAL ENERGIES
----------------

  NO   OCC          E(Eh)            E(eV) 
   0   2.0000     -10.432942      -283.8948 
   1   2.0000     -10.432743      -283.8894 
   2   2.0000     -10.432732      -283.8891 
   3   2.0000     -10.432531      -283.8836 
   4   2.0000      -0.947142       -25.7731 
   5   2.0000      -0.726913       -19.7803 
   6   2.0000      -0.726909       -19.7802 
   7   2.0000      -0.608196       -16.5499 
   8   2.0000      -0.538720       -14.6593 
   9   2.0000      -0.531846       -14.4723 
  10   2.0000      -0.431947       -11.7539 
  11   2.0000      -0.431933       -11.7535 
  12   2.0000      -0.404056       -10.9949 
  13   2.0000      -0.358768        -9.7626 
  14   2.0000      -0.351167        -9.5557 
  15   2.0000      -0.351166        -9.5557 
  16   0.0000       0.132253         3.5988 
  17   0.0000       0.147185         4.0051 
  18   0.0000       0.170085         4.6282 
  19   0.0000       0.170092         4.6284 
  20   0.0000       0.222927         6.0661 
  21   0.0000       0.228481         6.2173 
  22   0.0000       0.228504         6.2179 
  23   0.0000       0.266406         7.2493 
  24   0.0000       0.268906         7.3173 
  25   0.0000       0.268911         7.3174 
  26   0.0000       0.271980         7.4010 
  27   0.0000       0.305996         8.3266 
  28   0.0000       0.487849        13.2750 
  29   0.0000       0.511201        13.9105 
  30   0.0000       0.511246        13.9117 
  31   0.0000       0.521303        14.1854 
  32   0.0000       0.584135        15.8951 
  33   0.0000       0.635612        17.2959 
  34   0.0000       0.635636        17.2965 
  35   0.0000       0.717872        19.5343 
  36   0.0000       0.743228        20.2243 
  37   0.0000       0.747128        20.3304 
  38   0.0000       0.766040        20.8450 
  39   0.0000       0.766069        20.8458 
  40   0.0000       0.982401        26.7325 
  41   0.0000       0.987684        26.8762 
  42   0.0000       1.000805        27.2333 
  43   0.0000       1.000817        27.2336 
  44   0.0000       1.030188        28.0329 
  45   0.0000       1.054217        28.6867 
  46   0.0000       1.054718        28.7003 
  47   0.0000       1.054729        28.7006 
  48   0.0000       1.124571        30.6011 
  49   0.0000       1.302302        35.4374 
  50   0.0000       1.302319        35.4379 
  51   0.0000       1.467539        39.9338 
  52   0.0000       1.559019        42.4231 
  53   0.0000       1.626159        44.2500 
  54   0.0000       1.801346        49.0171 
  55   0.0000       1.873497        50.9804 
  56   0.0000       1.873532        50.9814 
  57   0.0000       2.004613        54.5483 
  58   0.0000       2.055681        55.9379 
  59   0.0000       2.055691        55.9382 
  60   0.0000       2.093287        56.9612 
  61   0.0000       2.171696        59.0948 
  62   0.0000       2.209483        60.1231 
  63   0.0000       2.209504        60.1237 
  64   0.0000       2.405037        65.4444 
  65   0.0000       2.405054        65.4449 
  66   0.0000       2.485533        67.6348 
  67   0.0000       2.559708        69.6532 
  68   0.0000       2.559712        69.6533 
  69   0.0000       2.596629        70.6579 
  70   0.0000       2.608510        70.9812 
  71   0.0000       2.891238        78.6746 
  72   0.0000      13.574908       369.3920 
  73   0.0000      13.876039       377.5862 
  74   0.0000      13.876054       377.5866 
  75   0.0000      14.155448       385.1893 

                    ********************************
                    * MULLIKEN POPULATION ANALYSIS *
                    ********************************

-----------------------
MULLIKEN ATOMIC CHARGES
-----------------------
   0 C :   -0.419518
   1 C :   -0.419610
   2 C :   -0.419619
   3 C :   -0.419322
   4 H :    0.204827
   5 H :    0.214745
   6 H :    0.204808
   7 H :    0.214728
   8 H :    0.214717
   9 H :    0.204805
  10 H :    0.204803
  11 H :    0.214636
Sum of atomic charges:    0.0000000

--------------------------------
MULLIKEN REDUCED ORBITAL CHARGES
--------------------------------
  0 C s       :     3.337802  s :     3.337802
      pz      :     1.127901  p :     3.036344
      px      :     0.956295
      py      :     0.952147
      dz2     :     0.010758  d :     0.045372
      dxz     :     0.006983
      dyz     :     0.006736
      dx2y2   :     0.012012
      dxy     :     0.008883
  1 C s       :     3.337804  s :     3.337804
      pz      :     1.106464  p :     3.036436
      px      :     0.974801
      py      :     0.955171
      dz2     :     0.011656  d :     0.045370
      dxz     :     0.006241
      dyz     :     0.006035
      dx2y2   :     0.011473
      dxy     :     0.009964
  2 C s       :     3.337818  s :     3.337818
      pz      :     1.100838  p :     3.036431
      px      :     0.954569
      py      :     0.981025
      dz2     :     0.011998  d :     0.045370
      dxz     :     0.005541
      dyz     :     0.006255
      dx2y2   :     0.011438
      dxy     :     0.010139
  3 C s       :     3.337814  s :     3.337814
      pz      :     1.082460  p :     3.036145
      px      :     0.976937
      py      :     0.976748
      dz2     :     0.013297  d :     0.045364
      dxz     :     0.005009
      dyz     :     0.005116
      dx2y2   :     0.010705
      dxy     :     0.011237
  4 H s       :     0.795173  s :     0.795173
  5 H s       :     0.785255  s :     0.785255
  6 H s       :     0.795192  s :     0.795192
  7 H s       :     0.785272  s :     0.785272
  8 H s       :     0.785283  s :     0.785283
  9 H s       :     0.795195  s :     0.795195
 10 H s       :     0.795197  s :     0.795197
 11 H s       :     0.785364  s :     0.785364


                     *******************************
                     * LOEWDIN POPULATION ANALYSIS *
                     *******************************

----------------------
LOEWDIN ATOMIC CHARGES
----------------------
   0 C :   -0.240162
   1 C :   -0.240114
   2 C :   -0.240111
   3 C :   -0.240101
   4 H :    0.122595
   5 H :    0.117546
   6 H :    0.122582
   7 H :    0.117542
   8 H :    0.117540
   9 H :    0.122582
  10 H :    0.122589
  11 H :    0.117512

-------------------------------
LOEWDIN REDUCED ORBITAL CHARGES
-------------------------------
  0 C s       :     2.927410  s :     2.927410
      pz      :     1.108097  p :     3.220345
      px      :     1.056313
      py      :     1.055935
      dz2     :     0.019241  d :     0.092407
      dxz     :     0.013621
      dyz     :     0.013178
      dx2y2   :     0.028484
      dxy     :     0.017884
  1 C s       :     2.927399  s :     2.927399
      pz      :     1.104403  p :     3.220308
      px      :     1.059807
      py      :     1.056098
      dz2     :     0.021247  d :     0.092407
      dxz     :     0.012385
      dyz     :     0.011946
      dx2y2   :     0.027020
      dxy     :     0.019809
  2 C s       :     2.927397  s :     2.927397
      pz      :     1.103395  p :     3.220306
      px      :     1.056168
      py      :     1.060743
      dz2     :     0.021969  d :     0.092407
      dxz     :     0.011082
      dyz     :     0.012417
      dx2y2   :     0.026859
      dxy     :     0.020080
  3 C s       :     2.927399  s :     2.927399
      pz      :     1.099980  p :     3.220300
      px      :     1.059995
      py      :     1.060325
      dz2     :     0.024630  d :     0.092402
      dxz     :     0.010202
      dyz     :     0.010475
      dx2y2   :     0.025069
      dxy     :     0.022027
  4 H s       :     0.877405  s :     0.877405
  5 H s       :     0.882454  s :     0.882454
  6 H s       :     0.877418  s :     0.877418
  7 H s       :     0.882458  s :     0.882458
  8 H s       :     0.882460  s :     0.882460
  9 H s       :     0.877418  s :     0.877418
 10 H s       :     0.877411  s :     0.877411
 11 H s       :     0.882488  s :     0.882488


                      *****************************
                      * MAYER POPULATION ANALYSIS *
                      *****************************

  NA   - Mulliken gross atomic population
  ZA   - Total nuclear charge
  QA   - Mulliken gross atomic charge
  VA   - Mayer's total valence
  BVA  - Mayer's bonded valence
  FA   - Mayer's free valence

  ATOM       NA         ZA         QA         VA         BVA        FA
  0 C      6.4195     6.0000    -0.4195     3.6970     3.6970    -0.0000
  1 C      6.4196     6.0000    -0.4196     3.6972     3.6972    -0.0000
  2 C      6.4196     6.0000    -0.4196     3.6972     3.6972     0.0000
  3 C      6.4193     6.0000    -0.4193     3.6969     3.6969     0.0000
  4 H      0.7952     1.0000     0.2048     0.9160     0.9160     0.0000
  5 H      0.7853     1.0000     0.2147     0.9239     0.9239     0.0000
  6 H      0.7952     1.0000     0.2048     0.9160     0.9160     0.0000
  7 H      0.7853     1.0000     0.2147     0.9239     0.9239    -0.0000
  8 H      0.7853     1.0000     0.2147     0.9239     0.9239     0.0000
  9 H      0.7952     1.0000     0.2048     0.9160     0.9160    -0.0000
 10 H      0.7952     1.0000     0.2048     0.9161     0.9161     0.0000
 11 H      0.7854     1.0000     0.2146     0.9240     0.9240    -0.0000

  Mayer bond orders larger than 0.100000
B(  0-C ,  1-C ) :   0.9610 B(  0-C ,  2-C ) :   0.9610 B(  0-C ,  4-H ) :   0.9197 
B(  0-C ,  5-H ) :   0.9335 B(  1-C ,  3-C ) :   0.9610 B(  1-C ,  6-H ) :   0.9197 
B(  1-C ,  7-H ) :   0.9334 B(  2-C ,  3-C ) :   0.9609 B(  2-C ,  8-H ) :   0.9334 
B(  2-C ,  9-H ) :   0.9197 B(  3-C , 10-H ) :   0.9198 B(  3-C , 11-H ) :   0.9335 


-------
TIMINGS
-------

Total SCF time: 0 days 0 hours 0 min 24 sec 

Total time                  ....      24.253 sec
Sum of individual times     ....      24.059 sec  ( 99.2%)

Fock matrix formation       ....      22.738 sec  ( 93.8%)
  Split-RI-J                ....       1.975 sec  (  8.7% of F)
  Chain of spheres X        ....      16.889 sec  ( 74.3% of F)
  XC integration            ....       3.823 sec  ( 16.8% of F)
    Basis function eval.    ....       1.576 sec  ( 41.2% of XC)
    Density eval.           ....       0.885 sec  ( 23.1% of XC)
    XC-Functional eval.     ....       0.593 sec  ( 15.5% of XC)
    XC-Potential eval.      ....       0.650 sec  ( 17.0% of XC)
Diagonalization             ....       0.009 sec  (  0.0%)
Density matrix formation    ....       0.001 sec  (  0.0%)
Population analysis         ....       0.002 sec  (  0.0%)
Initial guess               ....       0.021 sec  (  0.1%)
Orbital Transformation      ....       0.000 sec  (  0.0%)
Orbital Orthonormalization  ....       0.000 sec  (  0.0%)
DIIS solution               ....       0.002 sec  (  0.0%)
SOSCF solution              ....       0.003 sec  (  0.0%)
Grid generation             ....       1.283 sec  (  5.3%)

Maximum memory used throughout the entire SCF-calculation: 50.9 MB


-------------------------------------------------------------------------------
                          DFT DISPERSION CORRECTION                            
                                                                               
                              DFTD3 V3.1  Rev 1                                
                          USING Becke-Johnson damping                          
-------------------------------------------------------------------------------
The PBEh-3c composite method is recognized
Using three-body term ABC
Active option DFTDOPT                   ...         4   

molecular C6(AA) [au] = 965.878641 


            DFT-D V3
 parameters
 s6 scaling factor         :     1.0000 
 a1 scaling factor         :     0.4860 
 s8 scaling factor         :     0.0000 
 a2 scaling factor         :     4.5000 
 Damping factor alpha9(ATM):    16.0000 
 ad hoc parameters k1-k3   :    16.0000     1.3333    -4.0000 

 Edisp/kcal,au: -2.815899615878  -0.004487421197 
 E6   /kcal   :  -2.822732975 
 E8   /kcal   :  -0.000000000 
 E6(ABC)      :   0.006833359 
 % E8         :   0.000000000 
 % E6(ABC)    :  -0.242670563 

-------------------------   ----------------
Dispersion correction           -0.004487421
-------------------------   ----------------

------------------   -----------------
gCP correction             0.017948954
------------------   -----------------

-------------------------   --------------------
FINAL SINGLE POINT ENERGY      -156.860204903681
-------------------------   --------------------

------------------------------------------------------------------------------
                         ORCA SCF GRADIENT CALCULATION
------------------------------------------------------------------------------

 ... reading COSX grid (gridx3)
Gradient of the Kohn-Sham DFT energy:
Kohn-Sham wavefunction type      ... RKS
Hartree-Fock exchange scaling    ...    0.420
Number of operators              ...    1
Number of atoms                  ...   12
Basis set dimensions             ...   76
Integral neglect threshold       ... 2.5e-11
Integral primitive cutoff        ... 2.5e-12
SHARK Integral package           ... ON

Nuc. rep. gradient       (SHARK) ... done (  0.0 sec)
HCore & Overlap gradient (SHARK) ... done (  0.1 sec)
RI-J gradient            (SHARK) ... done (  0.5 sec)
COSX-gradient                    ... done (  4.7 sec)
Exchange-correlation gradient    ... done
Dispersion correction            ... done
gCP correction                   ... done

------------------
CARTESIAN GRADIENT
------------------

   1   C   :    0.011482282   -0.011384354   -0.011456090
   2   C   :    0.008780575    0.011819803    0.013249803
   3   C   :   -0.011283711   -0.008766387    0.013827415
   4   C   :   -0.008815959    0.008264082   -0.015598422
   5   H   :    0.002459764   -0.001980742    0.016406525
   6   H   :   -0.005862601    0.005373262   -0.012405746
   7   H   :    0.005154647    0.002135051   -0.015655191
   8   H   :   -0.007737365   -0.005704599    0.011209632
   9   H   :    0.005721212    0.008192938    0.010862582
  10   H   :   -0.002354576   -0.005630449   -0.015483305
  11   H   :   -0.005362151    0.005557224    0.014796492
  12   H   :    0.007893689   -0.007877546   -0.009642727

Difference to translation invariance:
           :    0.0000758051   -0.0000017160    0.0001109691

Difference to rotation invariance:
           :    0.0003765872    0.0011097853    0.0001797789

Norm of the cartesian gradient     ...    0.0595908550
RMS gradient                       ...    0.0099318092
MAX gradient                       ...    0.0164065246

-------
TIMINGS
-------

Total SCF gradient time            ...        7.873 sec

One electron gradient       ....       0.129 sec  (  1.6%)
RI-J Coulomb gradient       ....       0.465 sec  (  5.9%)
COSX gradient               ....       4.677 sec  ( 59.4%)
XC gradient                 ....       1.916 sec  ( 24.3%)

Maximum memory used throughout the entire SCFGRAD-calculation: 39.6 MB
------------------------------------------------------------------------------
                         ORCA GEOMETRY RELAXATION STEP
------------------------------------------------------------------------------

Reading the OPT-File                    .... done
Getting information on internals        .... done
Copying old internal coords+grads       .... done
Making the new internal coordinates     .... (new redundants).... done
Validating the new internal coordinates .... (new redundants).... done
Calculating the B-matrix                .... done
Calculating the G,G- and P matrices     .... done
Transforming gradient to internals      .... done
Projecting the internal gradient        .... done
Number of atoms                         ....  12
Number of internal coordinates          ....  72
Current Energy                          ....  -156.860204904 Eh
Current gradient norm                   ....     0.059590855 Eh/bohr
Maximum allowed component of the step   ....  0.300
Current trust radius                    ....  0.300
Evaluating the initial hessian          ....  (Almloef) done
Projecting the Hessian                  .... done
Forming the augmented Hessian           .... done
Diagonalizing the augmented Hessian     .... done
Last element of RFO vector              ....  0.985120879
Lowest eigenvalues of augmented Hessian:
 -0.007261891  0.013323155  0.050527793  0.050527934  0.066552793
Length of the computed step             ....  0.174458687
The final length of the internal step   ....  0.174458687
Converting the step to cartesian space:
 Initial RMS(Int)=    0.0205601534
Transforming coordinates:
 Iter   0:  RMS(Cart)=    0.0275244036 RMS(Int)=    0.0207269568
 Iter   1:  RMS(Cart)=    0.0004377647 RMS(Int)=    0.0003729498
 Iter   2:  RMS(Cart)=    0.0000107750 RMS(Int)=    0.0000084519
 Iter   3:  RMS(Cart)=    0.0000001418 RMS(Int)=    0.0000001068
 Iter   4:  RMS(Cart)=    0.0000000046 RMS(Int)=    0.0000000040
done
Storing new coordinates                 .... done

                                .--------------------.
          ----------------------|Geometry convergence|-------------------------
          Item                value                   Tolerance       Converged
          ---------------------------------------------------------------------
          RMS gradient        0.0054706620            0.0001000000      NO
          MAX gradient        0.0146074226            0.0003000000      NO
          RMS step            0.0205601534            0.0020000000      NO
          MAX step            0.0436155798            0.0040000000      NO
          ........................................................
          Max(Bonds)      0.0231      Max(Angles)    1.60
          Max(Dihed)        2.03      Max(Improp)    0.00
          ---------------------------------------------------------------------

The optimization has not yet converged - more geometry cycles are needed


    ---------------------------------------------------------------------------
                         Redundant Internal Coordinates
                            (Angstroem and degrees)

        Definition                    Value    dE/dq     Step     New-Value
    ----------------------------------------------------------------------------
     1. B(C   1,C   0)                1.5279 -0.007921  0.0109    1.5388   
     2. B(C   2,C   0)                1.5279 -0.007961  0.0110    1.5389   
     3. B(C   3,C   1)                1.5279 -0.007882  0.0109    1.5388   
     4. B(C   3,C   2)                1.5279 -0.007918  0.0109    1.5388   
     5. B(H   4,C   0)                1.1157  0.014607 -0.0231    1.0926   
     6. B(H   5,C   0)                1.1106  0.014086 -0.0219    1.0888   
     7. B(H   6,C   1)                1.1157  0.014571 -0.0230    1.0927   
     8. B(H   7,C   1)                1.1106  0.014107 -0.0219    1.0887   
     9. B(H   8,C   2)                1.1106  0.014091 -0.0219    1.0888   
    10. B(H   9,C   2)                1.1157  0.014590 -0.0231    1.0927   
    11. B(H  10,C   3)                1.1157  0.014570 -0.0230    1.0927   
    12. B(H  11,C   3)                1.1106  0.014077 -0.0218    1.0888   
    13. A(C   1,C   0,H   5)          118.76 -0.000197    0.16    118.92   
    14. A(C   1,C   0,H   4)          108.55 -0.002699    0.91    109.46   
    15. A(C   2,C   0,H   5)          118.76 -0.000198    0.16    118.93   
    16. A(C   1,C   0,C   2)           87.65  0.000420   -0.01     87.64   
    17. A(C   2,C   0,H   4)          108.55 -0.002707    0.91    109.46   
    18. A(H   4,C   0,H   5)          112.00  0.004000   -1.59    110.41   
    19. A(H   6,C   1,H   7)          112.00  0.003956   -1.58    110.42   
    20. A(C   3,C   1,H   7)          118.76 -0.000172    0.16    118.92   
    21. A(C   0,C   1,H   7)          118.76 -0.000191    0.17    118.93   
    22. A(C   3,C   1,H   6)          108.55 -0.002652    0.89    109.44   
    23. A(C   0,C   1,H   6)          108.55 -0.002672    0.91    109.46   
    24. A(C   0,C   1,C   3)           87.65  0.000357   -0.00     87.64   
    25. A(C   0,C   2,H   8)          118.76 -0.000190    0.16    118.92   
    26. A(C   0,C   2,C   3)           87.65  0.000382   -0.01     87.64   
    27. A(C   3,C   2,H   9)          108.55 -0.002670    0.90    109.45   
    28. A(C   0,C   2,H   9)          108.55 -0.002677    0.91    109.46   
    29. A(C   3,C   2,H   8)          118.76 -0.000190    0.16    118.92   
    30. A(H   8,C   2,H   9)          112.00  0.003970   -1.58    110.42   
    31. A(H  10,C   3,H  11)          112.00  0.004015   -1.60    110.40   
    32. A(C   2,C   3,H  11)          118.76 -0.000169    0.15    118.91   
    33. A(C   1,C   3,H  11)          118.76 -0.000186    0.16    118.92   
    34. A(C   2,C   3,H  10)          108.55 -0.002723    0.92    109.47   
    35. A(C   1,C   3,H  10)          108.55 -0.002724    0.92    109.48   
    36. A(C   1,C   3,C   2)           87.65  0.000393   -0.01     87.64   
    37. D(H   6,C   1,C   0,H   5)     35.90  0.001003   -0.74     35.17   
    38. D(H   7,C   1,C   0,C   2)    144.69 -0.001876    0.27    144.96   
    39. D(H   7,C   1,C   0,H   4)     35.90  0.001034   -0.76     35.15   
    40. D(H   6,C   1,C   0,H   4)    165.32  0.003943   -1.99    163.33   
    41. D(H   6,C   1,C   0,C   2)    -85.89  0.001033   -0.97    -86.86   
    42. D(C   3,C   1,C   0,H   5)    144.69 -0.001868    0.27    144.96   
    43. D(C   3,C   1,C   0,H   4)    -85.89  0.001071   -0.99    -86.88   
    44. D(C   3,C   1,C   0,C   2)     22.90 -0.001838    0.03     22.94   
    45. D(H   7,C   1,C   0,H   5)    -93.52 -0.001905    0.50    -93.01   
    46. D(H   8,C   2,C   0,H   5)     93.52  0.001905   -0.50     93.02   
    47. D(C   3,C   2,C   0,H   5)   -144.69  0.001862   -0.26   -144.96   
    48. D(C   3,C   2,C   0,H   4)     85.89 -0.001069    0.99     86.88   
    49. D(C   3,C   2,C   0,C   1)    -22.90  0.001834   -0.03    -22.94   
    50. D(H   8,C   2,C   0,H   4)    -35.90 -0.001027    0.75    -35.15   
    51. D(H   9,C   2,C   0,H   5)    -35.90 -0.001020    0.75    -35.15   
    52. D(H   9,C   2,C   0,H   4)   -165.32 -0.003951    2.00   -163.32   
    53. D(H   9,C   2,C   0,C   1)     85.89 -0.001049    0.98     86.87   
    54. D(H   8,C   2,C   0,C   1)   -144.69  0.001876   -0.27   -144.96   
    55. D(C   1,C   3,C   2,H   9)    -85.89  0.001050   -0.99    -86.87   
    56. D(C   1,C   3,C   2,H   8)    144.69 -0.001881    0.27    144.96   
    57. D(C   1,C   3,C   2,C   0)     22.90 -0.001839    0.03     22.94   
    58. D(H  11,C   3,C   1,H   6)    -35.90 -0.001038    0.77    -35.14   
    59. D(H  11,C   3,C   1,C   0)   -144.69  0.001854   -0.25   -144.95   
    60. D(H  10,C   3,C   1,H   7)    -35.90 -0.001040    0.76    -35.14   
    61. D(H  10,C   3,C   1,H   6)   -165.32 -0.003985    2.02   -163.30   
    62. D(H  11,C   3,C   1,H   7)     93.52  0.001907   -0.49     93.02   
    63. D(H  10,C   3,C   1,C   0)     85.89 -0.001093    1.00     86.89   
    64. D(C   2,C   3,C   1,H   7)   -144.69  0.001898   -0.27   -144.97   
    65. D(C   2,C   3,C   1,H   6)     85.89 -0.001047    0.99     86.87   
    66. D(H  10,C   3,C   2,C   0)    -85.89  0.001100   -1.01    -86.89   
    67. D(C   2,C   3,C   1,C   0)    -22.90  0.001844   -0.03    -22.94   
    68. D(H  11,C   3,C   2,H   9)     35.90  0.001026   -0.76     35.14   
    69. D(H  11,C   3,C   2,H   8)    -93.52 -0.001905    0.49    -93.03   
    70. D(H  11,C   3,C   2,C   0)    144.69 -0.001863    0.26    144.95   
    71. D(H  10,C   3,C   2,H   9)    165.32  0.003989   -2.03    163.30   
    72. D(H  10,C   3,C   2,H   8)     35.90  0.001058   -0.78     35.13   
    ----------------------------------------------------------------------------

         *************************************************************
         *                GEOMETRY OPTIMIZATION CYCLE   2            *
         *************************************************************
---------------------------------
CARTESIAN COORDINATES (ANGSTROEM)
---------------------------------
  C     -5.110020    1.674020    0.142903
  C     -5.063495    0.142074    0.005280
  C     -3.581168    1.672462   -0.032457
  C     -3.591343    0.210562    0.447882
  H     -5.357928    1.939506    1.173382
  H     -5.719441    2.247043   -0.554009
  H     -5.113141   -0.130046   -1.051807
  H     -5.760339   -0.460219    0.585808
  H     -2.987605    2.402584    0.515270
  H     -3.336920    1.703937   -1.097000
  H     -3.537447    0.185318    1.538955
  H     -2.878664   -0.490320    0.016243

----------------------------
CARTESIAN COORDINATES (A.U.)
----------------------------
  NO LB      ZA    FRAG     MASS         X           Y           Z
   0 C     6.0000    0    12.011   -9.656539    3.163439    0.270047
   1 C     6.0000    0    12.011   -9.568618    0.268480    0.009978
   2 C     6.0000    0    12.011   -6.767427    3.160496   -0.061335
   3 C     6.0000    0    12.011   -6.786654    0.397904    0.846374
   4 H     1.0000    0     1.008  -10.125017    3.665135    2.217371
   5 H     1.0000    0     1.008  -10.808177    4.246295   -1.046925
   6 H     1.0000    0     1.008   -9.662437   -0.245752   -1.987628
   7 H     1.0000    0     1.008  -10.885462   -0.869688    1.107017
   8 H     1.0000    0     1.008   -5.645755    4.540226    0.973720
   9 H     1.0000    0     1.008   -6.305864    3.219974   -2.073029
  10 H     1.0000    0     1.008   -6.684806    0.350200    2.908204
  11 H     1.0000    0     1.008   -5.439886   -0.926571    0.030696

--------------------------------
INTERNAL COORDINATES (ANGSTROEM)
--------------------------------
 C      0   0   0     0.000000000000     0.00000000     0.00000000
 C      1   0   0     1.538818975821     0.00000000     0.00000000
 C      1   2   0     1.538876753625    87.63666146     0.00000000
 C      2   1   3     1.538771833132    87.64400813    22.94079042
 H      1   2   3     1.092625164644   109.45715700   250.18222823
 H      1   2   3     1.088776874414   118.92254801   122.02343409
 H      2   1   3     1.092679493189   109.45545237   273.14089994
 H      2   1   3     1.088742498861   118.92675699   144.96324209
 H      3   1   2     1.088761157941   118.92185173   215.03684196
 H      3   1   2     1.092656602074   109.45535018    86.86759708
 H      4   2   1     1.092695808061   109.47320458    86.89000280
 H      4   2   1     1.088787291236   118.91705889   215.05017185

---------------------------
INTERNAL COORDINATES (A.U.)
---------------------------
 C      0   0   0     0.000000000000     0.00000000     0.00000000
 C      1   0   0     2.907946433984     0.00000000     0.00000000
 C      1   2   0     2.908055618209    87.63666146     0.00000000
 C      2   1   3     2.907857347212    87.64400813    22.94079042
 H      1   2   3     2.064762328207   109.45715700   250.18222823
 H      1   2   3     2.057490113589   118.92254801   122.02343409
 H      2   1   3     2.064864994279   109.45545237   273.14089994
 H      2   1   3     2.057425153209   118.92675699   144.96324209
 H      3   1   2     2.057460413759   118.92185173   215.03684196
 H      3   1   2     2.064821736341   109.45535018    86.86759708
 H      4   2   1     2.064895824918   109.47320458    86.89000280
 H      4   2   1     2.057509798530   118.91705889   215.05017185

------------------------------------------------------------------------------
                   ___                                                        
                  /   \      - P O W E R E D   B Y -                         
                 /     \                                                     
                 |  |  |   _    _      __       _____    __    __             
                 |  |  |  | |  | |    /  \     |  _  \  |  |  /  |          
                  \  \/   | |  | |   /    \    | | | |  |  | /  /          
                 / \  \   | |__| |  /  /\  \   | |_| |  |  |/  /          
                |  |  |   |  __  | /  /__\  \  |    /   |      \           
                |  |  |   | |  | | |   __   |  |    \   |  |\   \          
                \     /   | |  | | |  |  |  |  | |\  \  |  | \   \       
                 \___/    |_|  |_| |__|  |__|  |_| \__\ |__|  \__/        
                                                                              
                      - O R C A' S   B I G   F R I E N D -                    
                                      &                                       
                       - I N T E G R A L  F E E D E R -                       
                                                                              
 v1 FN, 2020, v2 2021                                                         
------------------------------------------------------------------------------


Reading SHARK input file OPT_A.SHARKINP.tmp ... ok
----------------------
SHARK INTEGRAL PACKAGE
----------------------

Number of atoms                             ...     12
Number of basis functions                   ...     76
Number of shells                            ...     44
Maximum angular momentum                    ...      2
Integral batch strategy                     ... SHARK/LIBINT Hybrid
RI-J (if used) integral strategy            ... SPLIT-RIJ (Revised 2003 algorithm where possible)
Printlevel                                  ...      1
Contraction scheme used                     ... SEGMENTED contraction
Coulomb Range Separation                    ... NOT USED
Exchange Range Separation                   ... NOT USED
Finite Nucleus Model                        ... NOT USED
Auxiliary Coulomb fitting basis             ... AVAILABLE
   # of basis functions in Aux-J            ...    284
   # of shells in Aux-J                     ...    100
   Maximum angular momentum in Aux-J        ...      4
Auxiliary J/K fitting basis                 ... NOT available
Auxiliary Correlation fitting basis         ... NOT available
Auxiliary 'external' fitting basis          ... NOT available
Integral threshold                          ...     2.500000e-11
Primitive cut-off                           ...     2.500000e-12
Primitive pair pre-selection threshold      ...     2.500000e-12

Calculating pre-screening integrals         ... done (  0.1 sec) Dimension = 44
Organizing shell pair data                  ... done (  0.0 sec)
Shell pair information
Total number of shell pairs                 ...       990
Shell pairs after pre-screening             ...       978
Total number of primitive shell pairs       ...      3646
Primitive shell pairs kept                  ...      2860
          la=0 lb=0:    516 shell pairs
          la=1 lb=0:    256 shell pairs
          la=1 lb=1:     36 shell pairs
          la=2 lb=0:    128 shell pairs
          la=2 lb=1:     32 shell pairs
          la=2 lb=2:     10 shell pairs

Calculating one electron integrals          ... done (  0.0 sec)
Calculating RI/J V-Matrix + Cholesky decomp.... done (  0.0 sec)
Calculating Nuclear repulsion               ... done (  0.0 sec) ENN=    128.150969754687 Eh

SHARK setup successfully completed in   0.3 seconds

Maximum memory used throughout the entire GTOINT-calculation: 9.7 MB

Diagonalization of the overlap matrix:
Smallest eigenvalue                        ... 5.316e-03
Time for diagonalization                   ...    0.001 sec
Threshold for overlap eigenvalues          ... 1.000e-08
Number of eigenvalues below threshold      ... 0
Time for construction of square roots      ...    0.000 sec
Total time needed                          ...    0.002 sec

-------------------
DFT GRID GENERATION
-------------------

General Integration Accuracy     IntAcc      ... 4.159
Radial Grid Type                 RadialGrid  ... OptM3 with GC (2021)
Angular Grid (max. ang.)         AngularGrid ... 3 (Lebedev-194)
Angular grid pruning method      GridPruning ... 4 (adaptive)
Weight generation scheme         WeightScheme... Becke
Basis function cutoff            BFCut       ... 1.0000e-11
Integration weight cutoff        WCut        ... 1.0000e-14
Angular grids for H and He will be reduced by one unit
Partially contracted basis set               ... off
Rotationally invariant grid construction     ... off

Total number of grid points                  ...    24382
Total number of batches                      ...      386
Average number of points per batch           ...       63
Average number of grid points per atom       ...     2032
Time for grid setup =    0.306 sec

--------------------
COSX GRID GENERATION
--------------------

GRIDX 1
-------
General Integration Accuracy     IntAcc      ... 3.816
Radial Grid Type                 RadialGrid  ... OptM3 with GC (2021)
Angular Grid (max. ang.)         AngularGrid ... 1 (Lebedev-50)
Angular grid pruning method      GridPruning ... 4 (adaptive)
Weight generation scheme         WeightScheme... Becke
Basis function cutoff            BFCut       ... 1.0000e-11
Integration weight cutoff        WCut        ... 1.0000e-14
Angular grids for H and He will be reduced by one unit
Partially contracted basis set               ... on
Rotationally invariant grid construction     ... off

Total number of grid points                  ...     6410
Total number of batches                      ...      108
Average number of points per batch           ...       59
Average number of grid points per atom       ...      534
UseSFitting                                  ... on

GRIDX 2
-------
General Integration Accuracy     IntAcc      ... 4.020
Radial Grid Type                 RadialGrid  ... OptM3 with GC (2021)
Angular Grid (max. ang.)         AngularGrid ... 2 (Lebedev-110)
Angular grid pruning method      GridPruning ... 4 (adaptive)
Weight generation scheme         WeightScheme... Becke
Basis function cutoff            BFCut       ... 1.0000e-11
Integration weight cutoff        WCut        ... 1.0000e-14
Angular grids for H and He will be reduced by one unit
Partially contracted basis set               ... on
Rotationally invariant grid construction     ... off

Total number of grid points                  ...    13338
Total number of batches                      ...      216
Average number of points per batch           ...       61
Average number of grid points per atom       ...     1112
UseSFitting                                  ... on

GRIDX 3
-------
General Integration Accuracy     IntAcc      ... 4.338
Radial Grid Type                 RadialGrid  ... OptM3 with GC (2021)
Angular Grid (max. ang.)         AngularGrid ... 3 (Lebedev-194)
Angular grid pruning method      GridPruning ... 4 (adaptive)
Weight generation scheme         WeightScheme... Becke
Basis function cutoff            BFCut       ... 1.0000e-11
Integration weight cutoff        WCut        ... 1.0000e-14
Angular grids for H and He will be reduced by one unit
Partially contracted basis set               ... on
Rotationally invariant grid construction     ... off

Total number of grid points                  ...    29214
Total number of batches                      ...      463
Average number of points per batch           ...       63
Average number of grid points per atom       ...     2434
UseSFitting                                  ... on

Time for X-Grid setup             =    0.645 sec

--------------
SCF ITERATIONS
--------------
ITER       Energy         Delta-E        Max-DP      RMS-DP      [F,P]     Damp
               ***  Starting incremental Fock matrix formation  ***
  0   -156.8766822537   0.000000000000 0.00361184  0.00022128  0.0073901 0.7000
                      *** Initiating the SOSCF procedure ***
                      *** Re-Reading the Fockian *** 
                      *** Removing any level shift *** 
ITER      Energy       Delta-E        Grad      Rot      Max-DP    RMS-DP
  1   -156.87697093  -0.0002886728  0.001084  0.001084  0.008842  0.000611
               *** Restarting incremental Fock matrix formation ***
  2   -156.87759380  -0.0006228702  0.001749  0.001957  0.001977  0.000168
  3   -156.87761227  -0.0000184770  0.000860  0.000589  0.001162  0.000078
  4   -156.87762497  -0.0000126948  0.000205  0.000135  0.000247  0.000019
  5   -156.87762534  -0.0000003722  0.000074  0.000030  0.000041  0.000005
                  ***Gradient check signals convergence***
              ***Rediagonalizing the Fockian in SOSCF/NRSCF***

               *****************************************************
               *                     SUCCESS                       *
               *           SCF CONVERGED AFTER   6 CYCLES          *
               *****************************************************

Old exchange energy                            =     -9.909570411 Eh
New exchange energy                            =     -9.909583656 Eh
Exchange energy change after final integration =     -0.000013245 Eh
Total energy after final integration           =   -156.877638633 Eh
Final COS-X integration done in                =     3.378 sec
Total Energy       :         -156.87763863 Eh           -4268.85757 eV
  Last Energy change         ...   -4.7395e-08  Tolerance :   1.0000e-08
  Last MAX-Density change    ...    7.7716e-16  Tolerance :   1.0000e-07
             **** THE GBW FILE WAS UPDATED (OPT_A.gbw) ****
             **** DENSITY OPT_A.scfp WAS UPDATED ****
             **** ENERGY FILE WAS UPDATED (OPT_A.en.tmp) ****
             **** THE GBW FILE WAS UPDATED (OPT_A.gbw) ****
             **** DENSITY OPT_A.scfp WAS UPDATED ****
Total SCF time: 0 days 0 hours 0 min 18 sec 

Maximum memory used throughout the entire SCF-calculation: 50.9 MB


-------------------------------------------------------------------------------
                          DFT DISPERSION CORRECTION                            
                                                                               
                              DFTD3 V3.1  Rev 1                                
                          USING Becke-Johnson damping                          
-------------------------------------------------------------------------------
-------------------------   ----------------
Dispersion correction           -0.004488029
-------------------------   ----------------

------------------   -----------------
gCP correction             0.017677003
------------------   -----------------

-------------------------   --------------------
FINAL SINGLE POINT ENERGY      -156.864449658824
-------------------------   --------------------

------------------------------------------------------------------------------
                         ORCA SCF GRADIENT CALCULATION
------------------------------------------------------------------------------

 ... reading COSX grid (gridx3)
Gradient of the Kohn-Sham DFT energy:
Kohn-Sham wavefunction type      ... RKS
Hartree-Fock exchange scaling    ...    0.420
Number of operators              ...    1
Number of atoms                  ...   12
Basis set dimensions             ...   76
Integral neglect threshold       ... 2.5e-11
Integral primitive cutoff        ... 2.5e-12
SHARK Integral package           ... ON

Nuc. rep. gradient       (SHARK) ... done (  0.0 sec)
HCore & Overlap gradient (SHARK) ... done (  0.1 sec)
RI-J gradient            (SHARK) ... done (  0.5 sec)
COSX-gradient                    ... done (  4.3 sec)
Exchange-correlation gradient    ... done
Dispersion correction            ... done
gCP correction                   ... done

------------------
CARTESIAN GRADIENT
------------------

   1   C   :   -0.002243078    0.002049423   -0.004805890
   2   C   :   -0.002923897   -0.002165838    0.004453240
   3   C   :    0.002137278    0.003131547    0.004340338
   4   C   :    0.003126108   -0.003065848   -0.003877229
   5   H   :    0.003047810   -0.002905557    0.002063622
   6   H   :    0.000876000   -0.000876364   -0.001023489
   7   H   :    0.003212494    0.003041493   -0.001497191
   8   H   :    0.000647612    0.000892169    0.001164997
   9   H   :   -0.000841149   -0.000628416    0.001202434
  10   H   :   -0.002975920   -0.003345210   -0.001335364
  11   H   :   -0.003330054    0.003250538    0.000764846
  12   H   :   -0.000646572    0.000606074   -0.001337062

Difference to translation invariance:
           :    0.0000866331   -0.0000159891    0.0001132525

Difference to rotation invariance:
           :    0.0004490814    0.0012155354    0.0002679064

Norm of the cartesian gradient     ...    0.0151975869
RMS gradient                       ...    0.0025329311
MAX gradient                       ...    0.0048058895

[...]
Angular grid pruning method      GridPruning ... 4 (adaptive)
Weight generation scheme         WeightScheme... Becke
Basis function cutoff            BFCut       ... 1.0000e-11
Integration weight cutoff        WCut        ... 1.0000e-14
Angular grids for H and He will be reduced by one unit
Partially contracted basis set               ... on
Rotationally invariant grid construction     ... off

Total number of grid points                  ...    13365
Total number of batches                      ...      216
Average number of points per batch           ...       61
Average number of grid points per atom       ...     1114
UseSFitting                                  ... on

GRIDX 3
-------
General Integration Accuracy     IntAcc      ... 4.338
Radial Grid Type                 RadialGrid  ... OptM3 with GC (2021)
Angular Grid (max. ang.)         AngularGrid ... 3 (Lebedev-194)
Angular grid pruning method      GridPruning ... 4 (adaptive)
Weight generation scheme         WeightScheme... Becke
Basis function cutoff            BFCut       ... 1.0000e-11
Integration weight cutoff        WCut        ... 1.0000e-14
Angular grids for H and He will be reduced by one unit
Partially contracted basis set               ... on
Rotationally invariant grid construction     ... off

Total number of grid points                  ...    29254
Total number of batches                      ...      464
Average number of points per batch           ...       63
Average number of grid points per atom       ...     2438
UseSFitting                                  ... on

Time for X-Grid setup             =    0.547 sec

--------------
SCF ITERATIONS
--------------
ITER       Energy         Delta-E        Max-DP      RMS-DP      [F,P]     Damp
               ***  Starting incremental Fock matrix formation  ***
                      *** Initiating the SOSCF procedure ***
                      *** Re-Reading the Fockian *** 
                      *** Removing any level shift *** 
ITER      Energy       Delta-E        Grad      Rot      Max-DP    RMS-DP
  0   -156.87827368 -156.8782736800  0.000064  0.000064  0.000056  0.000007
               *** Restarting incremental Fock matrix formation ***
  1   -156.87827381  -0.0000001266  0.000022  0.000033  0.000029  0.000003
  2   -156.87827382  -0.0000000114  0.000009  0.000013  0.000011  0.000001
  3   -156.87827382   0.0000000014  0.000007  0.000005  0.000005  0.000000
                 **** Energy Check signals convergence ****
              ***Rediagonalizing the Fockian in SOSCF/NRSCF***

               *****************************************************
               *                     SUCCESS                       *
               *           SCF CONVERGED AFTER   4 CYCLES          *
               *****************************************************

Old exchange energy                            =     -9.908504074 Eh
New exchange energy                            =     -9.908519951 Eh
Exchange energy change after final integration =     -0.000015877 Eh
Total energy after final integration           =   -156.878289696 Eh
Final COS-X integration done in                =     2.634 sec

----------------
TOTAL SCF ENERGY
----------------

Total Energy       :         -156.87828970 Eh           -4268.87529 eV

Components:
Nuclear Repulsion  :          127.59894699 Eh            3472.14387 eV
Electronic Energy  :         -284.47723669 Eh           -7741.01916 eV
One Electron Energy:         -462.46265357 Eh          -12584.24857 eV
Two Electron Energy:          177.98541688 Eh            4843.22942 eV
Max COSX asymmetry :            0.00000234 Eh               0.00006 eV

Virial components:
Potential Energy   :         -312.46923033 Eh           -8502.72003 eV
Kinetic Energy     :          155.59094064 Eh            4233.84474 eV
Virial Ratio       :            2.00827393


DFT components:
N(Alpha)           :       16.000007480836 electrons
N(Beta)            :       16.000007480836 electrons
N(Total)           :       32.000014961672 electrons
E(X)               :      -13.127559768332 Eh       
E(C)               :       -1.353864461802 Eh       
E(XC)              :      -14.481424230134 Eh       
DFET-embed. en.    :        0.000000000000 Eh       

---------------
SCF CONVERGENCE
---------------

  Last Energy change         ...   -2.8292e-09  Tolerance :   1.0000e-08
  Last MAX-Density change    ...    9.9920e-16  Tolerance :   1.0000e-07
  Last RMS-Density change    ...    4.7111e-17  Tolerance :   5.0000e-09
  Last Orbital Gradient      ...    1.7406e-07  Tolerance :   1.0000e-05
  Last Orbital Rotation      ...    1.8212e-07  Tolerance :   1.0000e-05

             **** THE GBW FILE WAS UPDATED (OPT_A.gbw) ****
             **** DENSITY OPT_A.scfp WAS UPDATED ****
             **** ENERGY FILE WAS UPDATED (OPT_A.en.tmp) ****
             **** THE GBW FILE WAS UPDATED (OPT_A.gbw) ****
             **** DENSITY OPT_A.scfp WAS UPDATED ****
----------------
ORBITAL ENERGIES
----------------

  NO   OCC          E(Eh)            E(eV) 
   0   2.0000     -10.427818      -283.7554 
   1   2.0000     -10.427646      -283.7507 
   2   2.0000     -10.427635      -283.7504 
   3   2.0000     -10.427458      -283.7456 
   4   2.0000      -0.934894       -25.4398 
   5   2.0000      -0.732028       -19.9195 
   6   2.0000      -0.732018       -19.9192 
   7   2.0000      -0.612102       -16.6561 
   8   2.0000      -0.537425       -14.6241 
   9   2.0000      -0.534819       -14.5532 
  10   2.0000      -0.434681       -11.8283 
  11   2.0000      -0.434666       -11.8279 
  12   2.0000      -0.401801       -10.9336 
  13   2.0000      -0.358284        -9.7494 
  14   2.0000      -0.351314        -9.5597 
  15   2.0000      -0.351292        -9.5591 
  16   0.0000       0.143611         3.9079 
  17   0.0000       0.149605         4.0709 
  18   0.0000       0.165302         4.4981 
  19   0.0000       0.165314         4.4984 
  20   0.0000       0.234216         6.3734 
  21   0.0000       0.234226         6.3736 
  22   0.0000       0.236497         6.4354 
  23   0.0000       0.272126         7.4049 
  24   0.0000       0.272136         7.4052 
  25   0.0000       0.275408         7.4942 
  26   0.0000       0.293803         7.9948 
  27   0.0000       0.334536         9.1032 
  28   0.0000       0.492182        13.3929 
  29   0.0000       0.518300        14.1037 
  30   0.0000       0.518321        14.1042 
  31   0.0000       0.521953        14.2031 
  32   0.0000       0.548494        14.9253 
  33   0.0000       0.637302        17.3419 
  34   0.0000       0.637318        17.3423 
  35   0.0000       0.732795        19.9404 
  36   0.0000       0.734578        19.9889 
  37   0.0000       0.734610        19.9897 
  38   0.0000       0.747329        20.3359 
  39   0.0000       0.752404        20.4739 
  40   0.0000       0.969136        26.3715 
  41   0.0000       1.002413        27.2771 
  42   0.0000       1.002435        27.2776 
  43   0.0000       1.003291        27.3009 
  44   0.0000       1.065212        28.9859 
  45   0.0000       1.078828        29.3564 
  46   0.0000       1.078845        29.3569 
  47   0.0000       1.082674        29.4610 
  48   0.0000       1.120331        30.4857 
  49   0.0000       1.277499        34.7625 
  50   0.0000       1.277540        34.7636 
  51   0.0000       1.451179        39.4886 
  52   0.0000       1.589750        43.2593 
  53   0.0000       1.598179        43.4887 
  54   0.0000       1.782494        48.5041 
  55   0.0000       1.895346        51.5750 
  56   0.0000       1.895457        51.5780 
  57   0.0000       2.039646        55.5016 
  58   0.0000       2.040189        55.5164 
  59   0.0000       2.040238        55.5177 
  60   0.0000       2.090257        56.8788 
  61   0.0000       2.174616        59.1743 
  62   0.0000       2.174634        59.1748 
  63   0.0000       2.182097        59.3779 
  64   0.0000       2.421028        65.8795 
  65   0.0000       2.421081        65.8810 
  66   0.0000       2.457054        66.8598 
  67   0.0000       2.549661        69.3798 
  68   0.0000       2.549684        69.3804 
  69   0.0000       2.630909        71.5907 
  70   0.0000       2.679314        72.9078 
  71   0.0000       2.886003        78.5321 
  72   0.0000      13.574023       369.3679 
  73   0.0000      13.866911       377.3378 
  74   0.0000      13.866919       377.3380 
  75   0.0000      14.137863       384.7108 

                    ********************************
                    * MULLIKEN POPULATION ANALYSIS *
                    ********************************

-----------------------
MULLIKEN ATOMIC CHARGES
-----------------------
   0 C :   -0.430629
   1 C :   -0.431168
   2 C :   -0.431189
   3 C :   -0.430674
   4 H :    0.213338
   5 H :    0.217557
   6 H :    0.213346
   7 H :    0.217603
   8 H :    0.217603
   9 H :    0.213350
  10 H :    0.213421
  11 H :    0.217439
Sum of atomic charges:    0.0000000

--------------------------------
MULLIKEN REDUCED ORBITAL CHARGES
--------------------------------
  0 C s       :     3.331905  s :     3.331905
      pz      :     1.140258  p :     3.054556
      px      :     0.958868
      py      :     0.955431
      dz2     :     0.008700  d :     0.044167
      dxz     :     0.007890
      dyz     :     0.007607
      dx2y2   :     0.011448
      dxy     :     0.008523
  1 C s       :     3.332021  s :     3.332021
      pz      :     1.124065  p :     3.054985
      px      :     0.972419
      py      :     0.958500
      dz2     :     0.009787  d :     0.044161
      dxz     :     0.006697
      dyz     :     0.007214
      dx2y2   :     0.011077
      dxy     :     0.009386
  2 C s       :     3.332036  s :     3.332036
      pz      :     1.119831  p :     3.054994
      px      :     0.957263
      py      :     0.977900
      dz2     :     0.010242  d :     0.044160
      dxz     :     0.006616
      dyz     :     0.006687
      dx2y2   :     0.011057
      dxy     :     0.009558
  3 C s       :     3.331897  s :     3.331897
      pz      :     1.106316  p :     3.054625
      px      :     0.974377
      py      :     0.973932
      dz2     :     0.012179  d :     0.044152
      dxz     :     0.005466
      dyz     :     0.005398
      dx2y2   :     0.010396
      dxy     :     0.010712
  4 H s       :     0.786662  s :     0.786662
  5 H s       :     0.782443  s :     0.782443
  6 H s       :     0.786654  s :     0.786654
  7 H s       :     0.782397  s :     0.782397
  8 H s       :     0.782397  s :     0.782397
  9 H s       :     0.786650  s :     0.786650
 10 H s       :     0.786579  s :     0.786579
 11 H s       :     0.782561  s :     0.782561


                     *******************************
                     * LOEWDIN POPULATION ANALYSIS *
                     *******************************

----------------------
LOEWDIN ATOMIC CHARGES
----------------------
   0 C :   -0.242408
   1 C :   -0.242435
   2 C :   -0.242427
   3 C :   -0.242403
   4 H :    0.124125
   5 H :    0.118288
   6 H :    0.124115
   7 H :    0.118305
   8 H :    0.118313
   9 H :    0.124119
  10 H :    0.124145
  11 H :    0.118265

-------------------------------
LOEWDIN REDUCED ORBITAL CHARGES
-------------------------------
  0 C s       :     2.923182  s :     2.923182
      pz      :     1.120984  p :     3.230170
      px      :     1.054762
      py      :     1.054423
      dz2     :     0.015453  d :     0.089056
      dxz     :     0.015070
      dyz     :     0.014555
      dx2y2   :     0.027383
      dxy     :     0.016594
  1 C s       :     2.923183  s :     2.923183
      pz      :     1.117378  p :     3.230211
      px      :     1.058151
      py      :     1.054682
      dz2     :     0.017647  d :     0.089041
      dxz     :     0.013078
      dyz     :     0.013890
      dx2y2   :     0.026308
      dxy     :     0.018119
  2 C s       :     2.923186  s :     2.923186
      pz      :     1.116401  p :     3.230204
      px      :     1.054620
      py      :     1.059183
      dz2     :     0.018535  d :     0.089037
      dxz     :     0.012835
      dyz     :     0.013088
      dx2y2   :     0.026190
      dxy     :     0.018388
  3 C s       :     2.923190  s :     2.923190
      pz      :     1.113131  p :     3.230187
      px      :     1.058362
      py      :     1.058693
      dz2     :     0.022221  d :     0.089026
      dxz     :     0.010909
      dyz     :     0.010858
      dx2y2   :     0.024605
      dxy     :     0.020434
  4 H s       :     0.875875  s :     0.875875
  5 H s       :     0.881712  s :     0.881712
  6 H s       :     0.875885  s :     0.875885
  7 H s       :     0.881695  s :     0.881695
  8 H s       :     0.881687  s :     0.881687
  9 H s       :     0.875881  s :     0.875881
 10 H s       :     0.875855  s :     0.875855
 11 H s       :     0.881735  s :     0.881735


                      *****************************
                      * MAYER POPULATION ANALYSIS *
                      *****************************

  NA   - Mulliken gross atomic population
  ZA   - Total nuclear charge
  QA   - Mulliken gross atomic charge
  VA   - Mayer's total valence
  BVA  - Mayer's bonded valence
  FA   - Mayer's free valence

  ATOM       NA         ZA         QA         VA         BVA        FA
  0 C      6.4306     6.0000    -0.4306     3.7084     3.7084    -0.0000
  1 C      6.4312     6.0000    -0.4312     3.7087     3.7087     0.0000
  2 C      6.4312     6.0000    -0.4312     3.7087     3.7087     0.0000
  3 C      6.4307     6.0000    -0.4307     3.7083     3.7083    -0.0000
  4 H      0.7867     1.0000     0.2133     0.9103     0.9103    -0.0000
  5 H      0.7824     1.0000     0.2176     0.9183     0.9183     0.0000
  6 H      0.7867     1.0000     0.2133     0.9103     0.9103     0.0000
  7 H      0.7824     1.0000     0.2176     0.9183     0.9183     0.0000
  8 H      0.7824     1.0000     0.2176     0.9183     0.9183     0.0000
  9 H      0.7866     1.0000     0.2134     0.9103     0.9103     0.0000
 10 H      0.7866     1.0000     0.2134     0.9103     0.9103    -0.0000
 11 H      0.7826     1.0000     0.2174     0.9184     0.9184    -0.0000

  Mayer bond orders larger than 0.100000
B(  0-C ,  1-C ) :   0.9716 B(  0-C ,  2-C ) :   0.9716 B(  0-C ,  4-H ) :   0.9212 
B(  0-C ,  5-H ) :   0.9335 B(  1-C ,  3-C ) :   0.9715 B(  1-C ,  6-H ) :   0.9212 
B(  1-C ,  7-H ) :   0.9335 B(  2-C ,  3-C ) :   0.9715 B(  2-C ,  8-H ) :   0.9335 
B(  2-C ,  9-H ) :   0.9212 B(  3-C , 10-H ) :   0.9212 B(  3-C , 11-H ) :   0.9336 


-------
TIMINGS
-------

Total SCF time: 0 days 0 hours 0 min 11 sec 

Total time                  ....      11.549 sec
Sum of individual times     ....      11.401 sec  ( 98.7%)

Fock matrix formation       ....      10.640 sec  ( 92.1%)
  Split-RI-J                ....       0.706 sec  (  6.6% of F)
  Chain of spheres X        ....       8.642 sec  ( 81.2% of F)
  XC integration            ....       1.304 sec  ( 12.3% of F)
    Basis function eval.    ....       0.528 sec  ( 40.5% of XC)
    Density eval.           ....       0.289 sec  ( 22.2% of XC)
    XC-Functional eval.     ....       0.248 sec  ( 19.0% of XC)
    XC-Potential eval.      ....       0.167 sec  ( 12.8% of XC)
Diagonalization             ....       0.001 sec  (  0.0%)
Density matrix formation    ....       0.000 sec  (  0.0%)
Population analysis         ....       0.002 sec  (  0.0%)
Initial guess               ....       0.005 sec  (  0.0%)
Orbital Transformation      ....       0.000 sec  (  0.0%)
Orbital Orthonormalization  ....       0.001 sec  (  0.0%)
DIIS solution               ....       0.000 sec  (  0.0%)
SOSCF solution              ....       0.003 sec  (  0.0%)
Grid generation             ....       0.749 sec  (  6.5%)

Maximum memory used throughout the entire SCF-calculation: 50.9 MB


-------------------------------------------------------------------------------
                          DFT DISPERSION CORRECTION                            
                                                                               
                              DFTD3 V3.1  Rev 1                                
                          USING Becke-Johnson damping                          
-------------------------------------------------------------------------------
The PBEh-3c composite method is recognized
Using three-body term ABC
Active option DFTDOPT                   ...         4   

molecular C6(AA) [au] = 965.840718 


            DFT-D V3
 parameters
 s6 scaling factor         :     1.0000 
 a1 scaling factor         :     0.4860 
 s8 scaling factor         :     0.0000 
 a2 scaling factor         :     4.5000 
 Damping factor alpha9(ATM):    16.0000 
 ad hoc parameters k1-k3   :    16.0000     1.3333    -4.0000 

 Edisp/kcal,au: -2.796877567839  -0.004457107638 
 E6   /kcal   :  -2.804001180 
 E8   /kcal   :  -0.000000000 
 E6(ABC)      :   0.007123612 
 % E8         :   0.000000000 
 % E6(ABC)    :  -0.254698737 

-------------------------   ----------------
Dispersion correction           -0.004457108
-------------------------   ----------------

------------------   -----------------
gCP correction             0.017081786
------------------   -----------------

-------------------------   --------------------
FINAL SINGLE POINT ENERGY      -156.865665017659
-------------------------   --------------------

                                *** OPTIMIZATION RUN DONE ***

                            ***************************************
                            *     ORCA property calculations      *
                            ***************************************

                                    ---------------------
                                    Active property flags
                                    ---------------------
   (+) Dipole Moment


------------------------------------------------------------------------------
                       ORCA ELECTRIC PROPERTIES CALCULATION
------------------------------------------------------------------------------

Dipole Moment Calculation                       ... on
Quadrupole Moment Calculation                   ... off
Polarizability Calculation                      ... off
GBWName                                         ... OPT_A.gbw
Electron density                                ... OPT_A.scfp
The origin for moment calculation is the CENTER OF MASS  = (-8.194787,  1.747629  0.266213)

-------------
DIPOLE MOMENT
-------------
                                X             Y             Z
Electronic contribution:     -0.00032       0.00068       0.00021
Nuclear contribution   :      0.00043      -0.00076      -0.00004
                        -----------------------------------------
Total Dipole Moment    :      0.00012      -0.00008       0.00017
                        -----------------------------------------
Magnitude (a.u.)       :      0.00022
Magnitude (Debye)      :      0.00057



--------------------
Rotational spectrum 
--------------------
 
Rotational constants in cm-1:     0.360395     0.360383     0.213682 
Rotational constants in MHz : 10804.377972 10804.005826  6406.022019 

 Dipole components along the rotational axes: 
x,y,z [a.u.] :    -0.000032    -0.000164     0.000150 
x,y,z [Debye]:    -0.000082    -0.000417     0.000380 

 

Timings for individual modules:

Sum of individual times         ...      213.349 sec (=   3.556 min)
GTO integral calculation        ...        2.643 sec (=   0.044 min)   1.2 %
SCF iterations                  ...      154.868 sec (=   2.581 min)  72.6 %
SCF Gradient evaluation         ...       55.277 sec (=   0.921 min)  25.9 %
Geometry relaxation             ...        0.561 sec (=   0.009 min)   0.3 %
                             ****ORCA TERMINATED NORMALLY****
TOTAL RUN TIME: 0 days 0 hours 3 minutes 35 seconds 150 msec
