      -----------------------------------------------------------      
     |                   =====================                   |     
     |                           x T B                           |     
     |                   =====================                   |     
     |                         S. Grimme                         |     
     |          Mulliken Center for Theoretical Chemistry        |     
     |                    University of Bonn                     |     
      -----------------------------------------------------------      

   * xtb version 6.5.1 (579679a) compiled by 'ehlert@majestix' on 2022-07-11

   xtb is free software: you can redistribute it and/or modify it under
   the terms of the GNU Lesser General Public License as published by
   the Free Software Foundation, either version 3 of the License, or
   (at your option) any later version.
   
   xtb is distributed in the hope that it will be useful,
   but WITHOUT ANY WARRANTY; without even the implied warranty of
   MERCHANTABILITY or FITNESS FOR A PARTICULAR PURPOSE.  See the
   GNU Lesser General Public License for more details.
   
   Cite this work as:
   * C. Bannwarth, E. Caldeweyher, S. Ehlert, A. Hansen, P. Pracht,
     J. Seibert, S. Spicher, S. Grimme, WIREs Comput. Mol. Sci., 2020, 11,
     e01493. DOI: 10.1002/wcms.1493
   
   for GFN2-xTB:
   * C. Bannwarth, S. Ehlert and S. Grimme., J. Chem. Theory Comput., 2019,
     15, 1652-1671. DOI: 10.1021/acs.jctc.8b01176
   for GFN1-xTB:
   * S. Grimme, C. Bannwarth, P. Shushkov, J. Chem. Theory Comput., 2017,
     13, 1989-2009. DOI: 10.1021/acs.jctc.7b00118
   for GFN0-xTB:
   * P. Pracht, E. Caldeweyher, S. Ehlert, S. Grimme, ChemRxiv, 2019, preprint.
     DOI: 10.26434/chemrxiv.8326202.v1
   for GFN-FF:
   * S. Spicher and S. Grimme, Angew. Chem. Int. Ed., 2020, 59, 15665-15673.
     DOI: 10.1002/anie.202004239
   
   for ALPB and GBSA implicit solvation:
   * S. Ehlert, M. Stahn, S. Spicher, S. Grimme, J. Chem. Theory Comput.,
     2021, 17, 4250-4261. DOI: 10.1021/acs.jctc.1c00471
   
   for DFT-D4:
   * E. Caldeweyher, C. Bannwarth and S. Grimme, J. Chem. Phys., 2017,
     147, 034112. DOI: 10.1063/1.4993215
   * E. Caldeweyher, S. Ehlert, A. Hansen, H. Neugebauer, S. Spicher,
     C. Bannwarth and S. Grimme, J. Chem. Phys., 2019, 150, 154122.
     DOI: 10.1063/1.5090222
   * E. Caldeweyher, J.-M. Mewes, S. Ehlert and S. Grimme, Phys. Chem. Chem. Phys.
     2020, 22, 8499-8512. DOI: 10.1039/D0CP00502A
   
   for sTDA-xTB:
   * S. Grimme and C. Bannwarth, J. Chem. Phys., 2016, 145, 054103.
     DOI: 10.1063/1.4959605
   
   in the mass-spec context:
   * V. Asgeirsson, C. Bauer and S. Grimme, Chem. Sci., 2017, 8, 4879.
     DOI: 10.1039/c7sc00601b
   * J. Koopman and S. Grimme, ACS Omega 2019, 4, 12, 15120-15133.
     DOI: 10.1021/acsomega.9b02011
   
   for metadynamics refer to:
   * S. Grimme, J. Chem. Theory Comput., 2019, 155, 2847-2862
     DOI: 10.1021/acs.jctc.9b00143
   
   for SPH calculations refer to:
   * S. Spicher and S. Grimme, J. Chem. Theory Comput., 2021, 17, 1701-1714
     DOI: 10.1021/acs.jctc.0c01306
   
   with help from (in alphabetical order)
   P. Atkinson, C. Bannwarth, F. Bohle, G. Brandenburg, E. Caldeweyher
   M. Checinski, S. Dohm, S. Ehlert, S. Ehrlich, I. Gerasimov, C. Hölzer
   A. Katbashev, J. Koopman, C. Lavigne, S. Lehtola, F. März, M. Müller,
   F. Musil, H. Neugebauer, J. Pisarek, C. Plett, P. Pracht, F. Pultar,
   J. Seibert, P. Shushkov, S. Spicher, M. Stahn, M. Steiner, T. Strunk,
   J. Stückrath, T. Rose, and J. Unsleber
   
 * started run on 2023/06/13 at 15:49:32.725     

           -------------------------------------------------
          |                Calculation Setup                |
           -------------------------------------------------

          program call               : xtb start.xyz --opt
          hostname                   : c04
          coordinate file            : start.xyz
          omp threads                :                     2

   ID    Z sym.   atoms
    1    6 C      1-5, 12-16
    2    1 H      6-11, 17-22

molecular fragmentation (1/2 indicates fragments):
1111111111122222222222
# atoms in fragment 1/2:    11    11
 fragment masses (1/2) :       66.10       66.10
CMA distance (Bohr)    :   6.269
constraining FC (au)   :  0.0500

           -------------------------------------------------
          |                 G F N 2 - x T B                 |
           -------------------------------------------------

        Reference                      10.1021/acs.jctc.8b01176
      * Hamiltonian:
        H0-scaling (s, p, d)           1.850000    2.230000    2.230000
        zeta-weighting                 0.500000
      * Dispersion:
        s8                             2.700000
        a1                             0.520000
        a2                             5.000000
        s9                             5.000000
      * Repulsion:
        kExp                           1.500000    1.000000
        rExp                           1.000000
      * Coulomb:
        alpha                          2.000000
        third order                    shell-resolved
        anisotropic                    true
        a3                             3.000000
        a5                             4.000000
        cn-shift                       1.200000
        cn-exp                         4.000000
        max-rad                        5.000000


          ...................................................
          :                      SETUP                      :
          :.................................................:
          :  # basis functions                  52          :
          :  # atomic orbitals                  52          :
          :  # shells                           32          :
          :  # electrons                        52          :
          :  max. iterations                   250          :
          :  Hamiltonian                  GFN2-xTB          :
          :  restarted?                      false          :
          :  GBSA solvation                  false          :
          :  PC potential                    false          :
          :  electronic temp.          300.0000000     K    :
          :  accuracy                    1.0000000          :
          :  -> integral cutoff          0.2500000E+02      :
          :  -> integral neglect         0.1000000E-07      :
          :  -> SCF convergence          0.1000000E-05 Eh   :
          :  -> wf. convergence          0.1000000E-03 e    :
          :  Broyden damping             0.4000000          :
          ...................................................

 iter      E             dE          RMSdq      gap      omega  full diag
   1    -27.8685367 -0.278685E+02  0.384E+00    2.98       0.0  T
   2    -27.8970901 -0.285533E-01  0.223E+00    2.99       1.0  T
   3    -27.8955583  0.153171E-02  0.643E-01    2.92       1.0  T
   4    -27.8931486  0.240969E-02  0.537E-01    2.91       1.0  T
   5    -27.8982639 -0.511524E-02  0.603E-02    2.90       1.0  T
   6    -27.8982796 -0.156948E-04  0.340E-02    2.90       1.0  T
   7    -27.8982724  0.714608E-05  0.240E-02    2.90       1.0  T
   8    -27.8982826 -0.102031E-04  0.206E-03    2.90      10.4  T
   9    -27.8982827 -0.126355E-07  0.110E-03    2.90      19.3  T
  10    -27.8982827 -0.806795E-08  0.467E-04    2.90      45.7  T
  11    -27.8982827 -0.340570E-08  0.145E-04    2.90     147.0  T

   *** convergence criteria satisfied after 11 iterations ***

         #    Occupation            Energy/Eh            Energy/eV
      -------------------------------------------------------------
         1        2.0000           -0.6407673             -17.4362
       ...           ...                  ...                  ...
        20        2.0000           -0.4389433             -11.9443
        21        2.0000           -0.4357738             -11.8580
        22        2.0000           -0.4343718             -11.8199
        23        2.0000           -0.4280113             -11.6468
        24        2.0000           -0.4165554             -11.3350
        25        2.0000           -0.3602292              -9.8023
        26        2.0000           -0.3537220              -9.6253 (HOMO)
        27                         -0.2471272              -6.7247 (LUMO)
        28                         -0.2353308              -6.4037
        29                         -0.1405456              -3.8244
        30                         -0.1281588              -3.4874
        31                          0.0999063               2.7186
       ...                                ...                  ...
        52                          0.6808546              18.5270
      -------------------------------------------------------------
                  HL-Gap            0.1065948 Eh            2.9006 eV
             Fermi-level           -0.3004246 Eh           -8.1750 eV

 SCC (total)                   0 d,  0 h,  0 min,  0.014 sec
 SCC setup                      ...        0 min,  0.000 sec (  1.516%)
 Dispersion                     ...        0 min,  0.000 sec (  1.703%)
 classical contributions        ...        0 min,  0.000 sec (  0.236%)
 integral evaluation            ...        0 min,  0.002 sec ( 14.351%)
 iterations                     ...        0 min,  0.007 sec ( 46.631%)
 molecular gradient             ...        0 min,  0.005 sec ( 34.349%)
 printout                       ...        0 min,  0.000 sec (  0.884%)

         :::::::::::::::::::::::::::::::::::::::::::::::::::::
         ::                     SUMMARY                     ::
         :::::::::::::::::::::::::::::::::::::::::::::::::::::
         :: total energy             -27.409003506091 Eh    ::
         :: gradient norm              0.138690088646 Eh/a0 ::
         :: HOMO-LUMO gap              2.900591555119 eV    ::
         ::.................................................::
         :: SCC energy               -27.898282663365 Eh    ::
         :: -> isotropic ES            0.004814543080 Eh    ::
         :: -> anisotropic ES          0.005448710910 Eh    ::
         :: -> anisotropic XC          0.022306514824 Eh    ::
         :: -> dispersion             -0.019824119584 Eh    ::
         :: repulsion energy           0.489086144976 Eh    ::
         :: add. restraining           0.000000000000 Eh    ::
         :: total charge               0.000000000000 e     ::
         :::::::::::::::::::::::::::::::::::::::::::::::::::::

      ----------------------------------------------------------- 
     |                   =====================                   |
     |                        A N C O P T                        |
     |                   =====================                   |
     |               Approximate Normal Coordinate               |
     |                Rational Function Optimizer                |
      ----------------------------------------------------------- 

          ...................................................
          :                      SETUP                      :
          :.................................................:
          :   optimization level            normal          :
          :   max. optcycles                   200          :
          :   ANC micro-cycles                  20          :
          :   degrees of freedom                60          :
          :.................................................:
          :   RF solver                   davidson          :
          :   write xtbopt.log                true          :
          :   linear?                        false          :
          :   energy convergence         0.5000000E-05 Eh   :
          :   grad. convergence          0.1000000E-02 Eh/α :
          :   maximium RF displ.         1.0000000          :
          :   Hlow (freq-cutoff)         0.1000000E-01      :
          :   Hmax (freq-cutoff)         5.0000000          :
          :   S6 in model hess.         20.0000000          :
          ...................................................

generating ANC from model Hessian ...
Using Lindh-Hessian (1995)
 Shifting diagonal of input Hessian by   9.636659418737675E-003
 Lowest  eigenvalues of input Hessian
    0.000000    0.000000    0.000000    0.000000    0.000000    0.000000
    0.010000    0.010235    0.010693    0.010915    0.011090    0.013128
    0.023632    0.024790    0.027546    0.027981    0.037403    0.037829
 Highest eigenvalues
    1.640737    1.641110    1.854628    1.855148    1.883277    1.884397
 

........................................................................
.............................. CYCLE    1 ..............................
........................................................................
   1    -27.8982827 -0.278983E+02  0.627E-05    2.90       0.0  T
   2    -27.8982827 -0.542499E-11  0.355E-05    2.90     600.4  T
   3    -27.8982827  0.426681E-11  0.218E-05    2.90     979.0  T
     SCC iter.                  ...        0 min,  0.002 sec
     gradient                   ...        0 min,  0.004 sec
 * total energy  :   -27.4090035 Eh     change       -0.5631051E-10 Eh
   gradient norm :     0.1386901 Eh/α   predicted     0.0000000E+00 (-100.00%)
   displ. norm   :     0.4339620 α      lambda       -0.2388019E-01
   maximum displ.:     0.3417296 α      in ANC's #6, #29, #8, ...

........................................................................
.............................. CYCLE    2 ..............................
........................................................................
   1    -27.9356807 -0.279357E+02  0.275E-01    3.29       0.0  T
   2    -27.9357366 -0.558918E-04  0.175E-01    3.32       1.0  T
   3    -27.9356631  0.734946E-04  0.111E-01    3.34       1.0  T
   4    -27.9358190 -0.155845E-03  0.141E-02    3.35       1.5  T
   5    -27.9358214 -0.241431E-05  0.683E-03    3.35       3.1  T
   6    -27.9358219 -0.521490E-06  0.308E-03    3.35       6.9  T
   7    -27.9358220 -0.775742E-07  0.850E-04    3.34      25.1  T
   8    -27.9358220 -0.338510E-09  0.348E-04    3.35      61.3  T
     SCC iter.                  ...        0 min,  0.003 sec
     gradient                   ...        0 min,  0.003 sec
 * total energy  :   -27.4252267 Eh     change       -0.1622318E-01 Eh
   gradient norm :     0.0584107 Eh/α   predicted    -0.1424389E-01 ( -12.20%)
   displ. norm   :     0.4303826 α      lambda       -0.7274156E-02
   maximum displ.:     0.4010052 α      in ANC's #6, #2, #21, ...

........................................................................
.............................. CYCLE    3 ..............................
........................................................................
   1    -27.9521493 -0.279521E+02  0.198E-01    3.58       0.0  T
   2    -27.9521712 -0.219239E-04  0.121E-01    3.59       1.0  T
   3    -27.9521126  0.586950E-04  0.705E-02    3.60       1.0  T
   4    -27.9521917 -0.791014E-04  0.863E-03    3.60       2.5  T
   5    -27.9521927 -0.104962E-05  0.303E-03    3.60       7.0  T
   6    -27.9521928 -0.731366E-07  0.170E-03    3.60      12.5  T
   7    -27.9521928 -0.316521E-07  0.501E-04    3.60      42.5  T
   8    -27.9521928 -0.682746E-09  0.131E-04    3.60     163.4  T
     SCC iter.                  ...        0 min,  0.003 sec
     gradient                   ...        0 min,  0.003 sec
 * total energy  :   -27.4301683 Eh     change       -0.4941667E-02 Eh
   gradient norm :     0.0128026 Eh/α   predicted    -0.4310775E-02 ( -12.77%)
   displ. norm   :     0.4483071 α      lambda       -0.2799417E-02
   maximum displ.:     0.4231860 α      in ANC's #6, #2, #21, ...

........................................................................
.............................. CYCLE    4 ..............................
........................................................................
   1    -27.9495353 -0.279495E+02  0.198E-01    3.66       0.0  T
   2    -27.9495421 -0.674519E-05  0.117E-01    3.67       1.0  T
   3    -27.9495204  0.216978E-04  0.355E-02    3.68       1.0  T
   4    -27.9495450 -0.246042E-04  0.465E-03    3.67       4.6  T
   5    -27.9495452 -0.250161E-06  0.187E-03    3.67      11.4  T
   6    -27.9495452 -0.874740E-08  0.111E-03    3.67      19.2  T
   7    -27.9495452 -0.129129E-07  0.397E-04    3.67      53.7  T
   8    -27.9495452 -0.111034E-08  0.966E-05    3.67     220.8  T
     SCC iter.                  ...        0 min,  0.004 sec
     gradient                   ...        0 min,  0.003 sec
 * total energy  :   -27.4321579 Eh     change       -0.1989554E-02 Eh
   gradient norm :     0.0059917 Eh/α   predicted    -0.1681048E-02 ( -15.51%)
   displ. norm   :     0.3169751 α      lambda       -0.9656337E-03
   maximum displ.:     0.2972434 α      in ANC's #6, #2, #5, ...

........................................................................
.............................. CYCLE    5 ..............................
........................................................................
   1    -27.9487654 -0.279488E+02  0.135E-01    3.69       0.0  T
   2    -27.9487672 -0.182026E-05  0.791E-02    3.70       1.0  T
   3    -27.9487656  0.153362E-05  0.102E-02    3.70       2.1  T
   4    -27.9487675 -0.184045E-05  0.313E-03    3.70       6.8  T
   5    -27.9487676 -0.150424E-06  0.971E-04    3.70      22.0  T
   6    -27.9487676 -0.161872E-08  0.508E-04    3.70      42.0  T
     SCC iter.                  ...        0 min,  0.003 sec
     gradient                   ...        0 min,  0.003 sec
 * total energy  :   -27.4328890 Eh     change       -0.7311075E-03 Eh
   gradient norm :     0.0067206 Eh/α   predicted    -0.5313475E-03 ( -27.32%)
   displ. norm   :     0.2207419 α      lambda       -0.4367205E-03
   maximum displ.:     0.1996099 α      in ANC's #6, #2, #5, ...

........................................................................
.............................. CYCLE    6 ..............................
........................................................................
   1    -27.9502187 -0.279502E+02  0.863E-02    3.70       0.0  T
   2    -27.9502193 -0.555599E-06  0.508E-02    3.71       1.0  T
   3    -27.9502174  0.190115E-05  0.102E-02    3.71       2.1  T
   4    -27.9502195 -0.213604E-05  0.169E-03    3.71      12.6  T
   5    -27.9502195 -0.354718E-07  0.657E-04    3.71      32.5  T
   6    -27.9502195 -0.102674E-08  0.386E-04    3.71      55.2  T
     SCC iter.                  ...        0 min,  0.003 sec
     gradient                   ...        0 min,  0.003 sec
 * total energy  :   -27.4332437 Eh     change       -0.3547321E-03 Eh
   gradient norm :     0.0048488 Eh/α   predicted    -0.2290422E-03 ( -35.43%)
   displ. norm   :     0.2124532 α      lambda       -0.2984872E-03
   maximum displ.:     0.1825957 α      in ANC's #6, #2, #5, ...

........................................................................
.............................. CYCLE    7 ..............................
........................................................................
   1    -27.9513343 -0.279513E+02  0.901E-02    3.71       0.0  T
   2    -27.9513347 -0.482033E-06  0.529E-02    3.71       1.0  T
   3    -27.9513335  0.128633E-05  0.859E-03    3.71       2.5  T
   4    -27.9513349 -0.148387E-05  0.139E-03    3.71      15.3  T
   5    -27.9513350 -0.276498E-07  0.559E-04    3.71      38.1  T
   6    -27.9513350  0.411724E-09  0.331E-04    3.71      64.4  T
     SCC iter.                  ...        0 min,  0.003 sec
     gradient                   ...        0 min,  0.003 sec
 * total energy  :   -27.4334844 Eh     change       -0.2406186E-03 Eh
   gradient norm :     0.0026241 Eh/α   predicted    -0.1559873E-03 ( -35.17%)
   displ. norm   :     0.2337275 α      lambda       -0.2174899E-03
   maximum displ.:     0.1885808 α      in ANC's #6, #2, #5, ...

........................................................................
.............................. CYCLE    8 ..............................
........................................................................
   1    -27.9517995 -0.279518E+02  0.996E-02    3.72       0.0  T
   2    -27.9518000 -0.479901E-06  0.585E-02    3.72       1.0  T
   3    -27.9517993  0.670073E-06  0.649E-03    3.72       3.3  T
   4    -27.9518002 -0.818370E-06  0.161E-03    3.72      13.2  T
   5    -27.9518002 -0.359146E-07  0.619E-04    3.72      34.4  T
   6    -27.9518002  0.380528E-09  0.359E-04    3.72      59.4  T
     SCC iter.                  ...        0 min,  0.003 sec
     gradient                   ...        0 min,  0.003 sec
 * total energy  :   -27.4336543 Eh     change       -0.1699615E-03 Eh
   gradient norm :     0.0017849 Eh/α   predicted    -0.1146871E-03 ( -32.52%)
   displ. norm   :     0.3827147 α      lambda       -0.1499315E-03
   maximum displ.:     0.2961964 α      in ANC's #6, #2, #3, ...

........................................................................
.............................. CYCLE    9 ..............................
........................................................................
   1    -27.9507742 -0.279508E+02  0.174E-01    3.72       0.0  T
   2    -27.9507755 -0.122828E-05  0.102E-01    3.72       1.0  T
   3    -27.9507756 -0.133586E-06  0.422E-03    3.72       5.1  T
   4    -27.9507758 -0.210160E-06  0.203E-03    3.72      10.5  T
   5    -27.9507758 -0.371330E-07  0.105E-03    3.72      20.2  T
   6    -27.9507758 -0.674652E-08  0.220E-04    3.72      97.0  T
   7    -27.9507758  0.429914E-10  0.121E-04    3.72     176.0  T
     SCC iter.                  ...        0 min,  0.003 sec
     gradient                   ...        0 min,  0.003 sec
 * total energy  :   -27.4337910 Eh     change       -0.1366450E-03 Eh
   gradient norm :     0.0028456 Eh/α   predicted    -0.7984899E-04 ( -41.56%)
   displ. norm   :     0.1263243 α      lambda       -0.4708298E-04
   maximum displ.:     0.0897477 α      in ANC's #6, #2, #3, ...

........................................................................
.............................. CYCLE   10 ..............................
........................................................................
   1    -27.9519705 -0.279520E+02  0.568E-02    3.73       0.0  T
   2    -27.9519706 -0.117763E-06  0.334E-02    3.73       1.0  T
   3    -27.9519705  0.154628E-06  0.331E-03    3.73       6.4  T
   4    -27.9519707 -0.203304E-06  0.765E-04    3.73      27.9  T
   5    -27.9519707 -0.396171E-08  0.341E-04    3.73      62.6  T
     SCC iter.                  ...        0 min,  0.002 sec
     gradient                   ...        0 min,  0.003 sec
 * total energy  :   -27.4338242 Eh     change       -0.3319768E-04 Eh
   gradient norm :     0.0012242 Eh/α   predicted    -0.2391877E-04 ( -27.95%)
   displ. norm   :     0.2893577 α      lambda       -0.4445747E-04
   maximum displ.:     0.1859680 α      in ANC's #6, #2, #3, ...

........................................................................
.............................. CYCLE   11 ..............................
........................................................................
   1    -27.9519573 -0.279520E+02  0.139E-01    3.73       0.0  T
   2    -27.9519579 -0.547186E-06  0.818E-02    3.73       1.0  T
   3    -27.9519577  0.215825E-06  0.506E-03    3.73       4.2  T
   4    -27.9519581 -0.458843E-06  0.162E-03    3.73      13.1  T
   5    -27.9519582 -0.145446E-07  0.665E-04    3.73      32.1  T
   6    -27.9519582 -0.597048E-09  0.304E-04    3.73      70.0  T
     SCC iter.                  ...        0 min,  0.003 sec
     gradient                   ...        0 min,  0.003 sec
 * total energy  :   -27.4338662 Eh     change       -0.4202883E-04 Eh
   gradient norm :     0.0014678 Eh/α   predicted    -0.2306032E-04 ( -45.13%)
   displ. norm   :     0.1424009 α      lambda       -0.2346537E-04
   maximum displ.:     0.0905850 α      in ANC's #3, #2, #6, ...

........................................................................
.............................. CYCLE   12 ..............................
........................................................................
   1    -27.9526358 -0.279526E+02  0.638E-02    3.74       0.0  T
   2    -27.9526359 -0.130274E-06  0.375E-02    3.74       1.0  T
   3    -27.9526358  0.180468E-06  0.361E-03    3.74       5.9  T
   4    -27.9526360 -0.247325E-06  0.749E-04    3.74      28.5  T
   5    -27.9526360 -0.215349E-08  0.326E-04    3.74      65.4  T
     SCC iter.                  ...        0 min,  0.002 sec
     gradient                   ...        0 min,  0.003 sec
 * total energy  :   -27.4338939 Eh     change       -0.2766546E-04 Eh
   gradient norm :     0.0014300 Eh/α   predicted    -0.1184340E-04 ( -57.19%)
   displ. norm   :     0.2044567 α      lambda       -0.4084514E-04
   maximum displ.:     0.1558819 α      in ANC's #3, #2, #5, ...

........................................................................
.............................. CYCLE   13 ..............................
........................................................................
   1    -27.9532243 -0.279532E+02  0.793E-02    3.73       0.0  T
   2    -27.9532244 -0.164116E-06  0.466E-02    3.73       1.0  T
   3    -27.9532237  0.753186E-06  0.667E-03    3.73       3.2  T
   4    -27.9532246 -0.884521E-06  0.844E-04    3.73      25.3  T
   5    -27.9532246 -0.663032E-09  0.486E-04    3.73      43.8  T
     SCC iter.                  ...        0 min,  0.002 sec
     gradient                   ...        0 min,  0.003 sec
 * total energy  :   -27.4339406 Eh     change       -0.4678467E-04 Eh
   gradient norm :     0.0011874 Eh/α   predicted    -0.2080488E-04 ( -55.53%)
   displ. norm   :     0.1754221 α      lambda       -0.2927439E-04
   maximum displ.:     0.1364471 α      in ANC's #3, #2, #5, ...

........................................................................
.............................. CYCLE   14 ..............................
........................................................................
   1    -27.9526336 -0.279526E+02  0.546E-02    3.72       0.0  T
   2    -27.9526337 -0.993210E-07  0.322E-02    3.72       1.0  T
   3    -27.9526329  0.773446E-06  0.643E-03    3.72       3.3  T
   4    -27.9526338 -0.872932E-06  0.692E-04    3.72      30.8  T
   5    -27.9526338 -0.103741E-08  0.417E-04    3.72      51.1  T
     SCC iter.                  ...        0 min,  0.002 sec
     gradient                   ...        0 min,  0.003 sec
 * total energy  :   -27.4339724 Eh     change       -0.3180120E-04 Eh
   gradient norm :     0.0012745 Eh/α   predicted    -0.1483797E-04 ( -53.34%)
   displ. norm   :     0.1642043 α      lambda       -0.2333211E-04
   maximum displ.:     0.1305062 α      in ANC's #3, #2, #6, ...

........................................................................
.............................. CYCLE   15 ..............................
........................................................................
   1    -27.9533205 -0.279533E+02  0.420E-02    3.71       0.0  T
   2    -27.9533206 -0.109988E-06  0.247E-02    3.71       1.0  T
   3    -27.9533205  0.113364E-06  0.293E-03    3.71       7.3  T
   4    -27.9533206 -0.146582E-06  0.843E-04    3.71      25.3  T
   5    -27.9533206 -0.676534E-08  0.337E-04    3.71      63.2  T
     SCC iter.                  ...        0 min,  0.002 sec
     gradient                   ...        0 min,  0.003 sec
 * total energy  :   -27.4339901 Eh     change       -0.1764280E-04 Eh
   gradient norm :     0.0020071 Eh/α   predicted    -0.1180772E-04 ( -33.07%)
   displ. norm   :     0.0439525 α      lambda       -0.8890283E-05
   maximum displ.:     0.0340215 α      in ANC's #3, #6, #2, ...

........................................................................
.............................. CYCLE   16 ..............................
........................................................................
   1    -27.9532413 -0.279532E+02  0.109E-02    3.71       0.0  T
   2    -27.9532413 -0.131511E-07  0.642E-03    3.71       3.3  T
   3    -27.9532413  0.254941E-07  0.126E-03    3.71      16.9  T
   4    -27.9532413 -0.295242E-07  0.194E-04    3.71     109.9  T
   5    -27.9532413 -0.388557E-09  0.102E-04    3.71     208.4  T
     SCC iter.                  ...        0 min,  0.002 sec
     gradient                   ...        0 min,  0.003 sec
 * total energy  :   -27.4339954 Eh     change       -0.5268591E-05 Eh
   gradient norm :     0.0006042 Eh/α   predicted    -0.4454325E-05 ( -15.46%)
   displ. norm   :     0.0333018 α      lambda       -0.3376648E-05
   maximum displ.:     0.0208757 α      in ANC's #3, #6, #4, ...

........................................................................
.............................. CYCLE   17 ..............................
........................................................................
   1    -27.9529069 -0.279529E+02  0.111E-02    3.70       0.0  T
   2    -27.9529069 -0.766508E-08  0.657E-03    3.70       3.2  T
   3    -27.9529067  0.168113E-06  0.322E-03    3.70       6.6  T
   4    -27.9529069 -0.187729E-06  0.227E-04    3.70      93.8  T
   5    -27.9529069 -0.211674E-09  0.117E-04    3.70     182.7  T
     SCC iter.                  ...        0 min,  0.002 sec
     gradient                   ...        0 min,  0.003 sec
 * total energy  :   -27.4339983 Eh     change       -0.2945755E-05 Eh
   gradient norm :     0.0007085 Eh/α   predicted    -0.1693876E-05 ( -42.50%)
   displ. norm   :     0.0437060 α      lambda       -0.3318693E-05
   maximum displ.:     0.0310834 α      in ANC's #6, #4, #3, ...

   *** GEOMETRY OPTIMIZATION CONVERGED AFTER 17 ITERATIONS ***

------------------------------------------------------------------------
 total energy gain   :        -0.0249948 Eh      -15.6845 kcal/mol
 total RMSD          :         0.6773193 a0        0.3584 Å
 total power (kW/mol):        -3.8602252 (step) -478.9116 (real)
------------------------------------------------------------------------

 ANCopt (total)                0 d,  0 h,  0 min,  0.137 sec
 optimizer setup                ...        0 min,  0.000 sec (  0.080%)
 model hessian                  ...        0 min,  0.013 sec (  9.750%)
 ANC generation                 ...        0 min,  0.000 sec (  0.318%)
 coordinate transformation      ...        0 min,  0.000 sec (  0.145%)
 single point calculation       ...        0 min,  0.119 sec ( 87.140%)
 optimization log               ...        0 min,  0.002 sec (  1.186%)
 hessian update                 ...        0 min,  0.000 sec (  0.111%)
 rational function              ...        0 min,  0.001 sec (  0.649%)

================
 final structure:
================
22
 xtb: 6.5.1 (579679a)
C           -3.71949429967349        0.59346044382107        0.73433235482489
C           -3.39071064575164        0.96080028540798       -0.67411086001340
C           -2.12360930157069        1.38664088268189       -0.74074215637577
C           -1.53646313776849        1.34154290113354        0.58125887386280
C           -2.44511849133776        0.88605709857223        1.45298400299986
H           -3.99386687446880       -0.46017460041406        0.81728308937521
H           -4.55445093033264        1.17756705226258        1.12710167105607
H           -4.09505555948557        0.87404266593121       -1.48064839473378
H           -1.59729375685556        1.71571841852066       -1.61853227742938
H           -0.52483326552036        1.63692683009370        0.79679962990035
H           -2.32301851495606        0.73718223244103        2.51064083113268
C           -2.50931021910286       -2.54400394932897       -0.80374726243047
C           -2.01809710604122       -2.66674736942274        0.43589258719929
C           -0.62038815442208       -2.14472703896049        0.46970128802511
C           -0.39720968755516       -1.71923020234752       -0.94288451591666
C           -1.50246204376320       -1.95493427333549       -1.66025587364685
H           -3.48966261751791       -2.82954493384941       -1.14177541687482
H           -2.51337989546924       -3.06899230069173        1.30155339733743
H            0.09505229700701       -2.90614287634707        0.78846094502871
H           -0.52592480169138       -1.30187911754053        1.15786459100873
H            0.52527972089316       -1.28778997398762       -1.28473813539039
H           -1.65074271461597       -1.75039217464026       -2.70544836893985
 
 Bond Distances (Angstroems)
 ---------------------------
C1-C2=1.4922         C1-C5=1.4920         C1-H6=1.0919         C1-H7=1.0921         C2-C1=1.4922         C2-C3=1.3384         
C2-H8=1.0743         C3-C2=1.3384         C3-C4=1.4472         C3-H9=1.0751         C4-C3=1.4472         C4-C5=1.3390         
C4-H10=1.0757        C5-C1=1.4920         C5-C4=1.3390         C5-H11=1.0750        H6-C1=1.0919         H7-C1=1.0921         
H8-C2=1.0743         H9-C3=1.0751         H10-C4=1.0757        H11-C5=1.0750        C12-C13=1.3391       C12-C16=1.4472       
C12-H17=1.0756       C13-C12=1.3391       C13-C14=1.4924       C13-H18=1.0754       C14-C13=1.4924       C14-C15=1.4921       
C14-H19=1.0923       C14-H20=1.0922       C15-C14=1.4921       C15-C16=1.3386       C15-H21=1.0742       C16-C12=1.4472       
C16-C15=1.3386       C16-H22=1.0753       H17-C12=1.0756       H18-C13=1.0754       H19-C14=1.0923       H20-C14=1.0922       
H21-C15=1.0742       H22-C16=1.0753       
 C  H  Rav=1.0808 sigma=0.0081  Rmin=1.0742  Rmax=1.0923    12
 C  C  Rav=1.4218 sigma=0.0698  Rmin=1.3384  Rmax=1.4924    10
 
 selected bond angles (degree)
 --------------------
C5-C1-C2=102.60                H6-C1-C2=111.38                H6-C1-C5=111.55                H7-C1-C2=112.10                
H7-C1-C5=112.02                H7-C1-H6=107.26                C3-C2-C1=109.51                H8-C2-C1=122.97                
H8-C2-C3=127.52                C4-C3-C2=109.19                H9-C3-C2=126.98                H9-C3-C4=123.83                
C5-C4-C3=109.27                H10-C4-C3=123.78               H10-C4-C5=126.95               C4-C5-C1=109.44                
H11-C5-C1=122.94               H11-C5-C4=127.63               
 
 selected dihedral angles (degree)
 ---------------------------------
C3-C2-C1-C5=  0.35            C3-C2-C1-H6=240.89            C3-C2-C1-H7=120.70            H8-C2-C1-C5=180.00            
H8-C2-C1-H6= 60.55            H8-C2-C1-H7=300.36            C4-C3-C2-C1=359.71            C4-C3-C2-H8=180.08            
H9-C3-C2-C1=179.70            H9-C3-C2-H8=  0.07            C5-C4-C3-C2=  0.10            C5-C4-C3-H9=180.11            
H10-C4-C3-C2=180.21           H10-C4-C3-H9=  0.22           C4-C5-C1-C2=359.72            C4-C5-C1-H6=119.06            
C4-C5-C1-H7=239.30            H11-C5-C1-C2=179.75           H11-C5-C1-H6=299.09           H11-C5-C1-H7= 59.34           
C1-C5-C4-C3=  0.12            C1-C5-C4-H10=180.01           H11-C5-C4-C3=180.09           H11-C5-C4-H10=359.98          
 
 CMA Distance (Angstroems)
 ---------------------------
R(CMA):  3.5522
           -------------------------------------------------
          |                Final Singlepoint                |
           -------------------------------------------------

          ...................................................
          :                      SETUP                      :
          :.................................................:
          :  # basis functions                  52          :
          :  # atomic orbitals                  52          :
          :  # shells                           32          :
          :  # electrons                        52          :
          :  max. iterations                   250          :
          :  Hamiltonian                  GFN2-xTB          :
          :  restarted?                      false          :
          :  GBSA solvation                  false          :
          :  PC potential                    false          :
          :  electronic temp.          300.0000000     K    :
          :  accuracy                    1.0000000          :
          :  -> integral cutoff          0.2500000E+02      :
          :  -> integral neglect         0.1000000E-07      :
          :  -> SCF convergence          0.1000000E-05 Eh   :
          :  -> wf. convergence          0.1000000E-03 e    :
          :  Broyden damping             0.4000000          :
          ...................................................

 iter      E             dE          RMSdq      gap      omega  full diag
   1    -27.9529069 -0.279529E+02  0.554E-05    3.70       0.0  T
   2    -27.9529069 -0.510880E-11  0.481E-05    3.70     443.5  T
   3    -27.9529069 -0.385612E-10  0.149E-05    3.70    1427.9  T

   *** convergence criteria satisfied after 3 iterations ***

         #    Occupation            Energy/Eh            Energy/eV
      -------------------------------------------------------------
         1        2.0000           -0.6374558             -17.3461
       ...           ...                  ...                  ...
        20        2.0000           -0.4394980             -11.9593
        21        2.0000           -0.4344501             -11.8220
        22        2.0000           -0.4339342             -11.8080
        23        2.0000           -0.4220016             -11.4832
        24        2.0000           -0.4196268             -11.4186
        25        2.0000           -0.3701613             -10.0726
        26        2.0000           -0.3678936             -10.0109 (HOMO)
        27                         -0.2318284              -6.3084 (LUMO)
        28                         -0.2273252              -6.1858
        29                         -0.1394610              -3.7949
        30                         -0.1358759              -3.6974
        31                          0.1175637               3.1991
       ...                                ...                  ...
        52                          0.7179270              19.5358
      -------------------------------------------------------------
                  HL-Gap            0.1360652 Eh            3.7025 eV
             Fermi-level           -0.2998610 Eh           -8.1596 eV

 SCC (total)                   0 d,  0 h,  0 min,  0.006 sec
 SCC setup                      ...        0 min,  0.000 sec (  1.456%)
 Dispersion                     ...        0 min,  0.000 sec (  1.049%)
 classical contributions        ...        0 min,  0.000 sec (  0.303%)
 integral evaluation            ...        0 min,  0.001 sec ( 17.021%)
 iterations                     ...        0 min,  0.002 sec ( 28.032%)
 molecular gradient             ...        0 min,  0.003 sec ( 49.514%)
 printout                       ...        0 min,  0.000 sec (  1.827%)

         :::::::::::::::::::::::::::::::::::::::::::::::::::::
         ::                     SUMMARY                     ::
         :::::::::::::::::::::::::::::::::::::::::::::::::::::
         :: total energy             -27.433998302464 Eh    ::
         :: gradient norm              0.000708821424 Eh/a0 ::
         :: HOMO-LUMO gap              3.702523866887 eV    ::
         ::.................................................::
         :: SCC energy               -27.952906896527 Eh    ::
         :: -> isotropic ES            0.004047088559 Eh    ::
         :: -> anisotropic ES          0.006109530900 Eh    ::
         :: -> anisotropic XC          0.021566450073 Eh    ::
         :: -> dispersion             -0.018773309488 Eh    ::
         :: repulsion energy           0.518686252423 Eh    ::
         :: add. restraining           0.000000000000 Eh    ::
         :: total charge               0.000000000000 e     ::
         :::::::::::::::::::::::::::::::::::::::::::::::::::::

           -------------------------------------------------
          |                Property Printout                |
           -------------------------------------------------

    * Orbital Energies and Occupations

         #    Occupation            Energy/Eh            Energy/eV
      -------------------------------------------------------------
         1        2.0000           -0.6374558             -17.3461
       ...           ...                  ...                  ...
        14        2.0000           -0.4943534             -13.4520
        15        2.0000           -0.4511599             -12.2767
        16        2.0000           -0.4506920             -12.2640
        17        2.0000           -0.4461939             -12.1416
        18        2.0000           -0.4452500             -12.1159
        19        2.0000           -0.4401736             -11.9777
        20        2.0000           -0.4394980             -11.9593
        21        2.0000           -0.4344501             -11.8220
        22        2.0000           -0.4339342             -11.8080
        23        2.0000           -0.4220016             -11.4832
        24        2.0000           -0.4196268             -11.4186
        25        2.0000           -0.3701613             -10.0726
        26        2.0000           -0.3678936             -10.0109 (HOMO)
        27                         -0.2318284              -6.3084 (LUMO)
        28                         -0.2273252              -6.1858
        29                         -0.1394610              -3.7949
        30                         -0.1358759              -3.6974
        31                          0.1175637               3.1991
        32                          0.1192493               3.2449
        33                          0.1227374               3.3399
        34                          0.1233555               3.3567
        35                          0.1384367               3.7671
        36                          0.1390328               3.7833
        37                          0.1532881               4.1712
       ...                                ...                  ...
        52                          0.7179270              19.5358
      -------------------------------------------------------------
                  HL-Gap            0.1360652 Eh            3.7025 eV
             Fermi-level           -0.2998610 Eh           -8.1596 eV

     #   Z          covCN         q      C6AA      α(0)
     1   6 C        3.898    -0.063    21.650     6.614
     2   6 C        2.998    -0.042    29.027     8.838
     3   6 C        3.006    -0.038    28.934     8.824
     4   6 C        3.007    -0.039    28.941     8.825
     5   6 C        2.996    -0.044    29.089     8.847
     6   1 H        0.924     0.068     2.108     2.271
     7   1 H        0.924     0.063     2.168     2.303
     8   1 H        0.926     0.026     2.647     2.544
     9   1 H        0.926     0.025     2.659     2.550
    10   1 H        0.926     0.022     2.696     2.568
    11   1 H        0.926     0.023     2.692     2.566
    12   6 C        3.007    -0.039    28.945     8.825
    13   6 C        2.996    -0.044    29.086     8.847
    14   6 C        3.898    -0.063    21.656     6.615
    15   6 C        2.997    -0.042    29.029     8.838
    16   6 C        3.006    -0.038    28.940     8.825
    17   1 H        0.926     0.022     2.696     2.568
    18   1 H        0.926     0.022     2.697     2.568
    19   1 H        0.924     0.062     2.173     2.305
    20   1 H        0.924     0.069     2.101     2.267
    21   1 H        0.926     0.026     2.650     2.546
    22   1 H        0.926     0.025     2.663     2.552

 Mol. C6AA /au·bohr⁶  :       5077.592730
 Mol. C8AA /au·bohr⁸  :     120584.805194
 Mol. α(0) /au        :        113.503756


Wiberg/Mayer (AO) data.
largest (>0.10) Wiberg bond orders for each atom

 ---------------------------------------------------------------------------
     #   Z sym  total        # sym  WBO       # sym  WBO       # sym  WBO
 ---------------------------------------------------------------------------
     1   6 C    3.999 --     2 C    1.041     5 C    1.041     7 H    0.933
                             6 H    0.929
     2   6 C    3.988 --     3 C    1.805     1 C    1.041     8 H    0.973
                             5 C    0.126
     3   6 C    3.990 --     2 C    1.805     4 C    1.141     9 H    0.973
     4   6 C    3.990 --     5 C    1.802     3 C    1.141    10 H    0.973
     5   6 C    3.988 --     4 C    1.802     1 C    1.041    11 H    0.973
                             2 C    0.126
     6   1 H    0.995 --     1 C    0.929
     7   1 H    0.996 --     1 C    0.933
     8   1 H    0.999 --     2 C    0.973
     9   1 H    0.999 --     3 C    0.973
    10   1 H    0.999 --     4 C    0.973
    11   1 H    0.999 --     5 C    0.973
    12   6 C    3.990 --    13 C    1.803    16 C    1.142    17 H    0.973
    13   6 C    3.988 --    12 C    1.803    14 C    1.041    18 H    0.973
                            15 C    0.126
    14   6 C    3.999 --    15 C    1.041    13 C    1.041    19 H    0.934
                            20 H    0.928
    15   6 C    3.988 --    16 C    1.804    14 C    1.041    21 H    0.973
                            13 C    0.126
    16   6 C    3.990 --    15 C    1.804    12 C    1.142    22 H    0.973
    17   1 H    0.999 --    12 C    0.973
    18   1 H    0.999 --    13 C    0.973
    19   1 H    0.996 --    14 C    0.934
    20   1 H    0.995 --    14 C    0.928
    21   1 H    0.999 --    15 C    0.973
    22   1 H    0.999 --    16 C    0.973
 ---------------------------------------------------------------------------

Topologies differ in total number of bonds
Writing topology from bond orders to xtbtopo.mol

molecular dipole:
                 x           y           z       tot (Debye)
 q only:       -0.064      -0.074       0.310
   full:       -0.076      -0.087       0.359       0.959
molecular quadrupole (traceless):
                xx          xy          yy          xz          yz          zz
 q only:        3.007      -0.531      -2.579      -1.699      -1.514      -0.428
  q+dip:        5.319       1.541      -6.631      -1.404      -2.926       1.312
   full:        4.097       0.131      -4.203      -1.775      -2.143       0.106

           -------------------------------------------------
          |                Geometry Summary                 |
           -------------------------------------------------

      molecular mass/u    :      132.2026480
   center of mass at/Å    :       -2.0288213      -0.5893934      -0.1022104
  moments of inertia/u·Å² :        0.2315419E+03   0.5360636E+03   0.5365238E+03
rotational constants/cm⁻¹ :        0.7280596E-01   0.3144707E-01   0.3142010E-01

 * 20 selected distances

     #   Z          #   Z                                           value/Å
     1   6 C        2   6 C                                       1.4922299
     2   6 C        3   6 C                                       1.3384043
     1   6 C        5   6 C                                       1.4920144
     4   6 C        5   6 C                                       1.3390395
     1   6 C        6   1 H                                       1.0919286
     1   6 C        7   1 H                                       1.0920628
     2   6 C        8   1 H                                       1.0743052
     3   6 C        9   1 H                                       1.0750887
     4   6 C       10   1 H                                       1.0756880
     5   6 C       11   1 H                                       1.0750397
    12   6 C       13   6 C                                       1.3390532
    13   6 C       14   6 C                                       1.4923937 (max)
    14   6 C       15   6 C                                       1.4920641
    15   6 C       16   6 C                                       1.3385668
    12   6 C       17   1 H                                       1.0755872
    13   6 C       18   1 H                                       1.0753952
    14   6 C       19   1 H                                       1.0923448
    14   6 C       20   1 H                                       1.0921927
    15   6 C       21   1 H                                       1.0742400 (min)
    16   6 C       22   1 H                                       1.0752917

 * 2 distinct bonds (by element types)

   Z      Z             #   av. dist./Å        max./Å        min./Å
   1 H    6 C          12     1.0807637     1.0923448     1.0742400
   6 C    6 C           8     1.4154708     1.4923937     1.3384043


optimized geometry written to: xtbopt.xyz


           -------------------------------------------------
          | TOTAL ENERGY              -27.433998302464 Eh   |
          | GRADIENT NORM               0.000708821424 Eh/α |
          | HOMO-LUMO GAP               3.702523866887 eV   |
           -------------------------------------------------

------------------------------------------------------------------------
 * finished run on 2023/06/13 at 15:49:32.916     
------------------------------------------------------------------------
 total:
 * wall-time:     0 d,  0 h,  0 min,  0.191 sec
 *  cpu-time:     0 d,  0 h,  0 min,  0.354 sec
 * ratio c/w:     1.859 speedup
 SCF:
 * wall-time:     0 d,  0 h,  0 min,  0.015 sec
 *  cpu-time:     0 d,  0 h,  0 min,  0.029 sec
 * ratio c/w:     1.999 speedup
 ANC optimizer:
 * wall-time:     0 d,  0 h,  0 min,  0.144 sec
 *  cpu-time:     0 d,  0 h,  0 min,  0.284 sec
 * ratio c/w:     1.980 speedup

