22
 energy: -27.409003506147 gnorm: 0.138690093311 xtb: 6.5.1 (579679a)
C           -3.60839000000000        0.22532000000000        0.65142000000000
C           -3.35909000000000        0.81179000000000       -0.69559000000000
C           -2.17398000000000        1.51620000000000       -0.69663000000000
C           -1.60043000000000        1.44955000000000        0.55200000000000
C           -2.40260000000000        0.70066000000000        1.38642000000000
H           -3.64296000000000       -0.88320000000000        0.60831000000000
H           -4.53950000000000        0.62925000000000        1.10082000000000
H           -4.00738000000000        0.70581000000000       -1.55510000000000
H           -1.76540000000000        2.03623000000000       -1.55263000000000
H           -0.66483000000000        1.90800000000000        0.84286000000000
H           -2.17881000000000        0.49306000000000        2.42424000000000
C           -2.58674000000000       -2.15423000000000       -0.75623000000000
C           -2.09487000000000       -2.27567000000000        0.52593000000000
C           -0.61227000000000       -2.12694000000000        0.52490000000000
C           -0.35835000000000       -1.90687000000000       -0.92685000000000
C           -1.54543000000000       -1.93295000000000       -1.62745000000000
H           -3.63225000000000       -2.22188000000000       -1.02538000000000
H           -2.70644000000000       -2.45270000000000        1.40052000000000
H           -0.11424000000000       -3.05107000000000        0.88555000000000
H           -0.29506000000000       -1.25010000000000        1.12702000000000
H            0.61270000000000       -1.74763000000000       -1.37622000000000
H           -1.63444000000000       -1.79725000000000       -2.69692000000000
22
 energy: -27.425226681932 gnorm: 0.058410723937 xtb: 6.5.1 (579679a)
C           -3.62080554857561        0.30401125651709        0.65993637401946
C           -3.37222345949199        0.84289438694487       -0.70463652181531
C           -2.19515776087243        1.51173505631084       -0.70952544666472
C           -1.60519159003932        1.44266253949838        0.57523272385355
C           -2.40373167948356        0.72906873143097        1.40398163421538
H           -3.70127017763966       -0.78284233507345        0.63711302561595
H           -4.54197575184530        0.68880788676964        1.10434062315448
H           -4.02209245419053        0.71400176529291       -1.55238208593608
H           -1.77713586931550        2.02167297165780       -1.56209093645495
H           -0.66649432915067        1.89270059445645        0.85644103281204
H           -2.19246831737509        0.50035246163603        2.43450581698889
C           -2.57260720673673       -2.21588599528494       -0.74542629084216
C           -2.09162990239395       -2.33709680262603        0.51742340738591
C           -0.61769742082237       -2.14105253043586        0.49672994525355
C           -0.34247357394347       -1.90978618137876       -0.94874626699641
C           -1.50763327280217       -1.94722172612680       -1.63584903380088
H           -3.61430109323895       -2.27252411153557       -1.02204193363130
H           -2.67563448302267       -2.51970473408343        1.40494617945395
H           -0.10136193636998       -3.03040159474936        0.87568904271831
H           -0.31078512374098       -1.28384198956590        1.10760631317268
H            0.62922465120343       -1.73743373277235       -1.37471611628035
H           -1.60731370015250       -1.79473591688254       -2.69754148622203
22
 energy: -27.430168348533 gnorm: 0.012802583183 xtb: 6.5.1 (579679a)
C           -3.64215909276715        0.35980555944301        0.67247240716758
C           -3.38650828395477        0.88631612096212       -0.69678298373668
C           -2.20502665396079        1.51823305285725       -0.71797029374594
C           -1.60569227691460        1.44848123618039        0.58867514423682
C           -2.41810737639448        0.77295291538938        1.41357516537928
H           -3.75358817664775       -0.72201269087968        0.66440053036538
H           -4.55396750857151        0.75800811992324        1.11323804601134
H           -4.05032035120428        0.74533286564361       -1.52868169508543
H           -1.76158431526634        2.00153019859148       -1.57167550833347
H           -0.65098361038958        1.87382129335087        0.84939430017279
H           -2.23008730617484        0.53422931700319        2.44402470760018
C           -2.56305199321721       -2.26578537319756       -0.74542672577798
C           -2.08197711012403       -2.38640422087627        0.50036081877971
C           -0.60964239682707       -2.16471297069281        0.48254828323423
C           -0.33529880903353       -1.90679378273435       -0.95960108861997
C           -1.48368586161198       -1.95979505609038       -1.64608369063669
H           -3.59605823449920       -2.35347249699854       -1.03886195793775
H           -2.63963927903455       -2.59420571668361        1.39685849022360
H           -0.06868990384681       -3.03341686572057        0.86333889410205
H           -0.32029032833590       -1.31381371251868        1.10119335754374
H            0.64219466981984       -1.71554432683791       -1.35971257805347
H           -1.59659580104348       -1.80737346611417       -2.70429362288934
22
 energy: -27.432157902708 gnorm: 0.005991712495 xtb: 6.5.1 (579679a)
C           -3.67016355692986        0.41215279109740        0.68798399033030
C           -3.40113753809736        0.91938609453700       -0.68853808126040
C           -2.20352096747267        1.51811591261214       -0.72371359761815
C           -1.60084431049615        1.44856747762691        0.59215099560935
C           -2.43341774064692        0.80666323189918        1.42261706251486
H           -3.80750254242224       -0.67060193298611        0.69169100219344
H           -4.57082485772605        0.84751795582787        1.12511981621359
H           -4.08531140213400        0.78607869174455       -1.50617063911658
H           -1.74133533994436        1.98543414529679       -1.57600870993853
H           -0.63614463362287        1.85964766856444        0.83703194885662
H           -2.27030753339708        0.57668386637364        2.46015493394106
C           -2.55127037023230       -2.31581623558028       -0.75454554908265
C           -2.06574044160460       -2.44230745785323        0.48596162447355
C           -0.59557300148781       -2.18444280058879        0.47553974004587
C           -0.32544684337974       -1.90881293216741       -0.96570273883969
C           -1.46802483581938       -1.98186123785785       -1.65787116446316
H           -3.57757243563475       -2.42782282679000       -1.06201131449825
H           -2.60619039688646       -2.67995592989004        1.38658088468056
H           -0.02870243423177       -3.04052701541818        0.84998306706593
H           -0.33361616862517       -1.32761489912822        1.10063448253343
H            0.65559890877877       -1.68656721655362       -1.34662907196426
H           -1.59371155798721       -1.81853735076615       -2.71326868167691
22
 energy: -27.432889010191 gnorm: 0.006720594147 xtb: 6.5.1 (579679a)
C           -3.68618493780804        0.44756521180737        0.69706979960478
C           -3.41250931816295        0.94300173905474       -0.68365140616719
C           -2.20425197347251        1.51879810023364       -0.72392251273531
C           -1.60134113874545        1.44950648470895        0.59382401027116
C           -2.44465847736741        0.83100383433564        1.43071325360297
H           -3.83920541614304       -0.63391837983602        0.70893322661190
H           -4.57806472312509        0.90775820795271        1.13063331724334
H           -4.10859050496388        0.82086758264380       -1.49373641965502
H           -1.72670952617661        1.96955513505880       -1.57660059483229
H           -0.62734382913069        1.84515306147137        0.82656910612945
H           -2.29524757235602        0.61254619187153        2.47330524081240
C           -2.54009358435879       -2.35311573171062       -0.76169164495140
C           -2.05310239875904       -2.48133530532692        0.47837071687229
C           -0.58632813840846       -2.19902227187878        0.47111870800898
C           -0.31944254615308       -1.90536748000197       -0.96812485304700
C           -1.45976915243484       -1.99353620843405       -1.66289394739276
H           -3.56077620593533       -2.48652189906974       -1.07844784046573
H           -2.58635396859198       -2.73978354642050        1.37712058364397
H           -0.00259360541478       -3.04701871894673        0.83813366374780
H           -0.34512276519040       -1.33906194902649        1.10162063210802
H            0.66025769123633       -1.66298012545557       -1.34044621184706
H           -1.59332790853792       -1.82871393303113       -2.71690682756332
22
 energy: -27.433243742294 gnorm: 0.004848835794 xtb: 6.5.1 (579679a)
C           -3.69703193443183        0.47349244061120        0.70304123405969
C           -3.41830515802140        0.95801135116260       -0.68095287217194
C           -2.20311033354955        1.51811708820159       -0.72313985309839
C           -1.60148106440317        1.44921881277240        0.59341188158543
C           -2.45089102848815        0.84645097665298        1.43505280872915
H           -3.86138522754210       -0.60581638289556        0.72071217432129
H           -4.58277658160325        0.94748795033043        1.13359395745176
H           -4.11877107553325        0.84507796049862       -1.48822722374933
H           -1.71841220792228        1.95928995271329       -1.57581152908348
H           -0.62339619730019        1.83582407561849        0.82069415694954
H           -2.30672509601742        0.63732340567126        2.47992676594867
C           -2.53103320866208       -2.38233241533287       -0.76681307023323
C           -2.04375752644561       -2.51232048986598        0.47344781260819
C           -0.58135787665644       -2.20745783000520        0.46879290830450
C           -0.31734071551804       -1.90231096367141       -0.96862131719563
C           -1.45650632417486       -2.00229927225044       -1.66417195876639
H           -3.54796566406168       -2.52825499983467       -1.08745112153007
H           -2.57505540333828       -2.78446849987346        1.36822031942043
H            0.01510473460019       -3.04815887917158        0.83079240335409
H           -0.35471723586333       -1.34673023116760        1.10341521481964
H            0.65847565349429       -1.64229619060826       -1.33801059201080
H           -1.59432052856155       -1.83246785955579       -2.71691209971319
22
 energy: -27.433484360927 gnorm: 0.002624155146 xtb: 6.5.1 (579679a)
C           -3.70640846307089        0.49790892914087        0.70821942853530
C           -3.42324609174493        0.97274722591332       -0.67814063560781
C           -2.20046812324165        1.51650383831915       -0.72267595277237
C           -1.60042885157831        1.44800995378264        0.59245937121513
C           -2.45692128991239        0.86176164252395        1.43900799833726
H           -3.88200273147941       -0.57914901727858        0.73136431502726
H           -4.58694831391630        0.98185195112489        1.13593064749334
H           -4.12407384063531        0.86606078475205       -1.48530876176300
H           -1.70940701944111        1.94532810675726       -1.57815217518302
H           -0.61690725578087        1.82268990013931        0.81674146620640
H           -2.31393519253946        0.65938845232741        2.48486872592802
C           -2.52295622200098       -2.41047064152208       -0.77140959091642
C           -2.03550942755535       -2.54046650167279        0.46908219748913
C           -0.57851164156193       -2.21353404100385        0.46688214933843
C           -0.31793170696801       -1.89362523144098       -0.96792318440740
C           -1.45578118698287       -2.00702544909186       -1.66401874991746
H           -3.53695167626678       -2.57276679760225       -1.09367928788422
H           -2.56586910366233       -2.82853634574739        1.35922281624714
H            0.03088923029094       -3.04674764366012        0.82353975003358
H           -0.36512795001571       -1.35440950634096        1.10737397605089
H            0.65279330107627       -1.61595035839715       -1.33642795782853
H           -1.59505644301260       -1.83418925102280       -2.71596654562173
22
 energy: -27.433654322448 gnorm: 0.001785063210 xtb: 6.5.1 (579679a)
C           -3.71519414381921        0.52382561092949        0.71359821155251
C           -3.42536512893538        0.98530790330147       -0.67595493582594
C           -2.19512036622898        1.51149658665901       -0.72370326540890
C           -1.59663022910789        1.44388261682610        0.59108183542089
C           -2.46078092995534        0.87551001992208        1.44193246339886
H           -3.90483844957153       -0.55112649344683        0.74356215956580
H           -4.59011418561489        1.02050336396322        1.13828475384161
H           -4.12740484662485        0.88599724853580       -1.48296034500377
H           -1.70035978583463        1.92833543643296       -1.58262878362331
H           -0.60905893123734        1.80722109377997        0.81501762481907
H           -2.32002394195850        0.68180120462714        2.48975293940793
C           -2.51582208981215       -2.44224400563633       -0.77664523171078
C           -2.02762360908249       -2.57231711502899        0.46355224271578
C           -0.57734139149624       -2.21712432879764        0.46541672031582
C           -0.32136111686055       -1.88156758429104       -0.96642828573187
C           -1.45670735027925       -2.01113437395918       -1.66410368564008
H           -3.52689622931430       -2.62145093803331       -1.09893292888765
H           -2.55604001557860       -2.87709062536140        1.34914644415744
H            0.04798479292293       -3.04125930848619        0.81607973019334
H           -0.37952861186663       -1.35991318402829        1.11335954400931
H            0.64351644889752       -1.58103412597626       -1.33326016804490
H           -1.59604988864167       -1.83223900193174       -2.71517703952124
22
 energy: -27.433790967401 gnorm: 0.002845788790 xtb: 6.5.1 (579679a)
C           -3.72798927553148        0.56387382781342        0.72223940944023
C           -3.42865616825722        1.00475033887821       -0.67163118311187
C           -2.18531152432532        1.50017500399386       -0.72633080125781
C           -1.58879689291505        1.43460459997805        0.58966168932129
C           -2.46748186219184        0.89805734842736        1.44737984099694
H           -3.93968229486682       -0.50699008116847        0.76321955476247
H           -4.59369338940667        1.08112989192365        1.14163670245426
H           -4.13178308824348        0.91352398564727       -1.47869264080892
H           -1.68207906861712        1.89187999609398       -1.59348876465413
H           -0.59163059717817        1.77458751722158        0.81255272897791
H           -2.33016690033084        0.71581092353388        2.49781220026833
C           -2.50576381138053       -2.49044923230933       -0.78539100096248
C           -2.01555526796739       -2.61985099944490        0.45408079323784
C           -0.57726915832852       -2.21903370003786        0.46347121211763
C           -0.33015266491393       -1.85495323373769       -0.96300715867163
C           -1.45952043992751       -2.01360023731516       -1.66500462870086
H           -3.51143669284907       -2.70158987360679       -1.10809944657964
H           -2.53780524393195       -2.95451155984194        1.33335317815244
H            0.07326595994935       -3.02869746234811        0.80268588249802
H           -0.40587643166275       -1.36636075743593        1.12528121848056
H            0.62466659155227       -1.51895655378840       -1.32572241464704
H           -1.59804177867592       -1.82801974247663       -2.71501637131368
22
 energy: -27.433824165085 gnorm: 0.001224775282 xtb: 6.5.1 (579679a)
C           -3.73133255448159        0.57674793951862        0.72526661067780
C           -3.42734575736041        1.00737745166872       -0.67097264449422
C           -2.18126701316145        1.49321920919832       -0.72755452242828
C           -1.58526221393530        1.42896893887110        0.58940928238297
C           -2.46743498423082        0.90272833416747        1.44850948044188
H           -3.95183088786828       -0.49232804925715        0.77108468106887
H           -4.59298127300507        1.10342831331476        1.14227292779675
H           -4.13224356501277        0.91945563669293       -1.47708200635363
H           -1.67715324526580        1.87874853070524       -1.59563967262069
H           -0.58740791958719        1.76386615663343        0.81234526348618
H           -2.33298781756568        0.72579698969109        2.50039203596428
C           -2.50254373452706       -2.50583826550491       -0.78895822015422
C           -2.01170555819472       -2.63474711144544        0.45013496176644
C           -0.57841910996594       -2.21790309440630        0.46310887810140
C           -0.33494136292649       -1.84591746164870       -0.96151948128512
C           -1.46085088198889       -2.01446975519747       -1.66589070062995
H           -3.50518818829406       -2.72544257160171       -1.11271017828106
H           -2.52999127487112       -2.97754427565398        1.32772291182154
H            0.08052522141796       -3.02191762597496        0.79864562681575
H           -0.41654492469859       -1.36694947158021        1.12894045832738
H            0.61605563573544       -1.49646424893125       -1.32120227005707
H           -1.59990859021214       -1.82543556925956       -2.71531342234712
22
 energy: -27.433866193920 gnorm: 0.001467792580 xtb: 6.5.1 (579679a)
C           -3.73814200555467        0.60208777115362        0.73205249258674
C           -3.42613027208405        1.01326610901324       -0.66814190187809
C           -2.17051331404656        1.47396059825643       -0.73036111532943
C           -1.57594564455942        1.41311777078316        0.58854914552074
C           -2.46931626230457        0.91391070180618        1.45264794518482
H           -3.97648598744992       -0.46247699095967        0.78815051426323
H           -4.59069297449412        1.14757372266851        1.14322002310396
H           -4.13234452926842        0.92813842811740       -1.47332320025698
H           -1.65862321711570        1.83884857717402       -1.60300281957258
H           -0.57165362091075        1.73059680761539        0.80854700927696
H           -2.33904722914381        0.74483484409210        2.50623380178799
C           -2.49671882987379       -2.53575982029871       -0.79650918436481
C           -2.00507525889760       -2.66335022292092        0.44233873319614
C           -0.58300122181490       -2.21026165998084        0.46250780863535
C           -0.34667285721328       -1.81864003761657       -0.95762892847748
C           -1.46532492596455       -2.01146326278467       -1.66718854697244
H           -3.49230785704210       -2.77767612402149       -1.12445394901969
H           -2.51406482066684       -3.02751866661041        1.31641492703348
H            0.09524813418692       -3.00194057375888        0.78883487657038
H           -0.44316222594354       -1.36351338696205        1.13817394914269
H            0.59565516538118       -1.44094904613160       -1.31066241137180
H           -1.60644024521946       -1.81740553863421       -2.71540916905934
22
 energy: -27.433893859378 gnorm: 0.001430236739 xtb: 6.5.1 (579679a)
C           -3.73820646318927        0.60932221664321        0.73434665838735
C           -3.42222434796280        1.00968376776566       -0.66805963748898
C           -2.16383035505038        1.46033829060936       -0.73143137211251
C           -1.57029882343565        1.40178001313081        0.58786960916136
C           -2.46698094538618        0.91401120542224        1.45391428902704
H           -3.98625676668479       -0.45272741489280        0.79643548466556
H           -4.58572426660682        1.16484713127556        1.14195334140677
H           -4.12893230831276        0.92567806653225       -1.47295855746328
H           -1.64767883498409        1.81548105519541       -1.60539486679950
H           -0.56312896509604        1.71154056816112        0.80559270413359
H           -2.33866899127967        0.74927274010329        2.50847079787260
C           -2.49566804314973       -2.54518682525458       -0.79964084947198
C           -2.00447286781407       -2.67036935191408        0.43964480815961
C           -0.58807909446755       -2.20163372600130        0.46288128565109
C           -0.35469628522677       -1.80026280921743       -0.95516726332578
C           -1.46983522688768       -2.00420601342452       -1.66677127101160
H           -3.48730914061577       -2.80088283412977       -1.13161875024864
H           -2.50900928437830       -3.04559963351187        1.31190351568326
H            0.09844724668373       -2.98723780634545        0.78574609392369
H           -0.45837724592522       -1.35734064078984        1.14311552709739
H            0.58307302683565       -1.41067329771384       -1.30527171501209
H           -1.61290201706577       -1.81045470164341       -2.71456983223514
22
 energy: -27.433940644048 gnorm: 0.001187429088 xtb: 6.5.1 (579679a)
C           -3.73480015909221        0.61020171649895        0.73575573973858
C           -3.41480318123132        0.99843924338285       -0.66876099760730
C           -2.15128553737660        1.43537921282373       -0.73378104307545
C           -1.55949425067878        1.38000890819289        0.58547989475927
C           -2.46162318272814        0.90769705190155        1.45483295170469
H           -3.99454343500284       -0.44819743643291        0.80542214961761
H           -4.57572405761174        1.17791941114354        1.13847945523684
H           -4.12164234700838        0.91516124164180       -1.47360700176063
H           -1.62993192950315        1.77995199047068       -1.60827121868917
H           -0.54958226351102        1.68193185166883        0.80025498251451
H           -2.33523064099117        0.74753373367839        2.51027976393751
C           -2.49695730386601       -2.55190121628101       -0.80280454325098
C           -2.00705719059858       -2.67410812751505        0.43728748690652
C           -0.59800584049613       -2.18339415206272        0.46472945246466
C           -0.36785619172499       -1.77370935813572       -0.95131865125839
C           -1.47877194014373       -1.99188965996605       -1.66526197484427
H           -3.48302912690050       -2.81791542357890       -1.13965835974442
H           -2.50692116873714       -3.05814893420540        1.30723901306790
H            0.09992936883556       -2.95990863361236        0.78588615703934
H           -0.48183758309460       -1.34018048320062        1.14845489002426
H            0.56395517928799       -1.36512183544559       -1.29755399739046
H           -1.62554721782646       -1.79436910096687       -2.71209414939084
22
 energy: -27.433972445244 gnorm: 0.001274552986 xtb: 6.5.1 (579679a)
C           -3.73074844963563        0.60683954262309        0.73599726070775
C           -3.40566151828736        0.98480361878533       -0.67073567373768
C           -2.13938983297819        1.41399118031473       -0.73667784315734
C           -1.54948841344034        1.36129102424806        0.58306365791053
C           -2.45525307877377        0.89822831966733        1.45410410552912
H           -3.99983938526956       -0.44897008440746        0.81180987672930
H           -4.56726591083081        1.18478133230632        1.13488702461183
H           -4.11242867038311        0.90289701542492       -1.47566066954775
H           -1.61477418241853        1.75171697785916       -1.61208950217460
H           -0.53835231927944        1.65903866281642        0.79719913002255
H           -2.33091873581680        0.74249822398024        2.51053898301644
C           -2.50025074512570       -2.55210521645697       -0.80372675263536
C           -2.01054151351887       -2.67294570942546        0.43660373664916
C           -0.60676964197248       -2.16588032983512        0.46688054179382
C           -0.37976326229761       -1.74884337449789       -0.94777907243812
C           -1.48797615597944       -1.97683867813890       -1.66312678506777
H           -3.48285273770023       -2.83035696258486       -1.14301293510055
H           -2.50779088870189       -3.06787889904284        1.30465574102444
H            0.09924084170474       -2.93584934196278        0.78665277166135
H           -0.50079918461482       -1.32284461816461        1.15307299681032
H            0.54739154477804       -1.33057029013071       -1.29228885251869
H           -1.63652775945811       -1.77762239337798       -2.70937774008898
22
 energy: -27.433990088047 gnorm: 0.002007173077 xtb: 6.5.1 (579679a)
C           -3.72377364994113        0.59905550264733        0.73515960985907
C           -3.39633023615372        0.96969861233041       -0.67281055235227
C           -2.12968424173925        1.39526184639987       -0.73904274343199
C           -1.54150151259996        1.34631628515754        0.58208747731764
C           -2.44860597146957        0.88869433513058        1.45354369397204
H           -3.99836668298380       -0.45423677400637        0.81580119514267
H           -4.55775326262317        1.18263680647466        1.13033796488074
H           -4.10174057659207        0.88625400595018       -1.47852717302940
H           -1.60155673146468        1.72458927043223       -1.61684593056507
H           -0.52760188000434        1.63854801296845        0.79562689957291
H           -2.32555787895518        0.73651956077322        2.51056438270642
C           -2.50507532569383       -2.54862617848943       -0.80414333578157
C           -2.01489952539450       -2.66802591730074        0.43601471432849
C           -0.61595517012266       -2.15078080094286        0.46907041957623
C           -0.39193467719527       -1.72798509050154       -0.94447019278275
C           -1.49748694137721       -1.96231497715995       -1.66136433613067
H           -3.48514192129126       -2.83464104680535       -1.14376874567019
H           -2.51047758943639       -3.06641853185468        1.30233367980216
H            0.09560873965256       -2.91461384002271        0.78926281748294
H           -0.51797950384456       -1.30738520568508        1.15574110776603
H            0.53162383960735       -1.29748362094213       -1.28674309074452
H           -1.64656930037724       -1.75968225455364       -2.70683786191918
22
 energy: -27.433995356637 gnorm: 0.000604210019 xtb: 6.5.1 (579679a)
C           -3.72138711909234        0.59618138525112        0.73464515514700
C           -3.39345286672544        0.96497070347664       -0.67355065940659
C           -2.12586856410571        1.38914662682047       -0.74026332816841
C           -1.53805731435098        1.34168349769366        0.58131990393584
C           -2.44660024964572        0.88645217781131        1.45328372747049
H           -3.99710601927108       -0.45688137807076        0.81666636226375
H           -4.55518819736536        1.18081285736364        1.12852537937392
H           -4.09873900125635        0.88075504521089       -1.47946482266830
H           -1.59928733896441        1.71905805342558       -1.61751007412067
H           -0.52552023731584        1.63539152369929        0.79592786163825
H           -2.32443267496702        0.73623635037307        2.51080875153426
C           -2.50701439799740       -2.54641601465892       -0.80403312157749
C           -2.01645097120698       -2.66663814502624        0.43596397397976
C           -0.61857946552451       -2.14669973400581        0.46957899958111
C           -0.39520328950778       -1.72185839042633       -0.94342614148285
C           -1.50025858044534       -1.95788794714807       -1.66076722933411
H           -3.48677245159533       -2.83363993087864       -1.14315134019176
H           -2.51165127224541       -3.06713681068220        1.30184123461273
H            0.09501591181456       -2.90900381501267        0.78920477424116
H           -0.52268348066485       -1.30357724360230        1.15685018833108
H            0.52747258360379       -1.29067447466929       -1.28536791357064
H           -1.64899500317043       -1.75489433694445       -2.70609168158876
22
 energy: -27.433998302393 gnorm: 0.000709223664 xtb: 6.5.1 (579679a)
C           -3.71949429967349        0.59346044382107        0.73433235482489
C           -3.39071064575164        0.96080028540798       -0.67411086001340
C           -2.12360930157069        1.38664088268189       -0.74074215637577
C           -1.53646313776849        1.34154290113354        0.58125887386280
C           -2.44511849133776        0.88605709857223        1.45298400299986
H           -3.99386687446880       -0.46017460041406        0.81728308937521
H           -4.55445093033264        1.17756705226258        1.12710167105607
H           -4.09505555948557        0.87404266593121       -1.48064839473378
H           -1.59729375685556        1.71571841852066       -1.61853227742938
H           -0.52483326552036        1.63692683009370        0.79679962990035
H           -2.32301851495606        0.73718223244103        2.51064083113268
C           -2.50931021910286       -2.54400394932897       -0.80374726243047
C           -2.01809710604122       -2.66674736942274        0.43589258719929
C           -0.62038815442208       -2.14472703896049        0.46970128802511
C           -0.39720968755516       -1.71923020234752       -0.94288451591666
C           -1.50246204376320       -1.95493427333549       -1.66025587364685