
                                 *****************
                                 * O   R   C   A *
                                 *****************

                                            #,                                       
                                            ###                                      
                                            ####                                     
                                            #####                                    
                                            ######                                   
                                           ########,                                 
                                     ,,################,,,,,                         
                               ,,#################################,,                 
                          ,,##########################################,,             
                       ,#########################################, ''#####,          
                    ,#############################################,,   '####,        
                  ,##################################################,,,,####,       
                ,###########''''           ''''###############################       
              ,#####''   ,,,,##########,,,,          '''####'''          '####       
            ,##' ,,,,###########################,,,                        '##       
           ' ,,###''''                  '''############,,,                           
         ,,##''                                '''############,,,,        ,,,,,,###''
      ,#''                                            '''#######################'''  
     '                                                          ''''####''''         
             ,#######,   #######,   ,#######,      ##                                
            ,#'     '#,  ##    ##  ,#'     '#,    #''#        ######   ,####,        
            ##       ##  ##   ,#'  ##            #'  '#       #        #'  '#        
            ##       ##  #######   ##           ,######,      #####,   #    #        
            '#,     ,#'  ##    ##  '#,     ,#' ,#      #,         ##   #,  ,#        
             '#######'   ##     ##  '#######'  #'      '#     #####' # '####'        



                  #######################################################
                  #                        -***-                        #
                  #          Department of theory and spectroscopy      #
                  #    Directorship and core code : Frank Neese         #
                  #        Max Planck Institute fuer Kohlenforschung    #
                  #                Kaiser Wilhelm Platz 1               #
                  #                 D-45470 Muelheim/Ruhr               #
                  #                      Germany                        #
                  #                                                     #
                  #                  All rights reserved                #
                  #                        -***-                        #
                  #######################################################


                         Program Version 5.0.2 -  RELEASE  -


 With contributions from (in alphabetic order):
   Daniel Aravena         : Magnetic Suceptibility
   Michael Atanasov       : Ab Initio Ligand Field Theory (pilot matlab implementation)
   Alexander A. Auer      : GIAO ZORA, VPT2 properties, NMR spectrum
   Ute Becker             : Parallelization
   Giovanni Bistoni       : ED, misc. LED, open-shell LED, HFLD
   Martin Brehm           : Molecular dynamics
   Dmytro Bykov           : SCF Hessian
   Vijay G. Chilkuri      : MRCI spin determinant printing, contributions to CSF-ICE
   Dipayan Datta          : RHF DLPNO-CCSD density
   Achintya Kumar Dutta   : EOM-CC, STEOM-CC
   Dmitry Ganyushin       : Spin-Orbit,Spin-Spin,Magnetic field MRCI
   Miquel Garcia          : C-PCM and meta-GGA Hessian, CC/C-PCM, Gaussian charge scheme
   Yang Guo               : DLPNO-NEVPT2, F12-NEVPT2, CIM, IAO-localization
   Andreas Hansen         : Spin unrestricted coupled pair/coupled cluster methods
   Benjamin Helmich-Paris : MC-RPA, TRAH-SCF, COSX integrals
   Lee Huntington         : MR-EOM, pCC
   Robert Izsak           : Overlap fitted RIJCOSX, COSX-SCS-MP3, EOM
   Marcus Kettner         : VPT2
   Christian Kollmar      : KDIIS, OOCD, Brueckner-CCSD(T), CCSD density, CASPT2, CASPT2-K
   Simone Kossmann        : Meta GGA functionals, TD-DFT gradient, OOMP2, MP2 Hessian
   Martin Krupicka        : Initial AUTO-CI
   Lucas Lang             : DCDCAS
   Marvin Lechner         : AUTO-CI (C++ implementation), FIC-MRCC
   Dagmar Lenk            : GEPOL surface, SMD
   Dimitrios Liakos       : Extrapolation schemes; Compound Job, initial MDCI parallelization
   Dimitrios Manganas     : Further ROCIS development; embedding schemes
   Dimitrios Pantazis     : SARC Basis sets
   Anastasios Papadopoulos: AUTO-CI, single reference methods and gradients
   Taras Petrenko         : DFT Hessian,TD-DFT gradient, ASA, ECA, R-Raman, ABS, FL, XAS/XES, NRVS
   Peter Pinski           : DLPNO-MP2, DLPNO-MP2 Gradient
   Christoph Reimann      : Effective Core Potentials
   Marius Retegan         : Local ZFS, SOC
   Christoph Riplinger    : Optimizer, TS searches, QM/MM, DLPNO-CCSD(T), (RO)-DLPNO pert. Triples
   Tobias Risthaus        : Range-separated hybrids, TD-DFT gradient, RPA, STAB
   Michael Roemelt        : Original ROCIS implementation
   Masaaki Saitow         : Open-shell DLPNO-CCSD energy and density
   Barbara Sandhoefer     : DKH picture change effects
   Avijit Sen             : IP-ROCIS
   Kantharuban Sivalingam : CASSCF convergence, NEVPT2, FIC-MRCI
   Bernardo de Souza      : ESD, SOC TD-DFT
   Georgi Stoychev        : AutoAux, RI-MP2 NMR, DLPNO-MP2 response
   Willem Van den Heuvel  : Paramagnetic NMR
   Boris Wezisla          : Elementary symmetry handling
   Frank Wennmohs         : Technical directorship


 We gratefully acknowledge several colleagues who have allowed us to
 interface, adapt or use parts of their codes:
   Stefan Grimme, W. Hujo, H. Kruse, P. Pracht,  : VdW corrections, initial TS optimization,
                  C. Bannwarth, S. Ehlert          DFT functionals, gCP, sTDA/sTD-DF
   Ed Valeev, F. Pavosevic, A. Kumar             : LibInt (2-el integral package), F12 methods
   Garnet Chan, S. Sharma, J. Yang, R. Olivares  : DMRG
   Ulf Ekstrom                                   : XCFun DFT Library
   Mihaly Kallay                                 : mrcc  (arbitrary order and MRCC methods)
   Jiri Pittner, Ondrej Demel                    : Mk-CCSD
   Frank Weinhold                                : gennbo (NPA and NBO analysis)
   Christopher J. Cramer and Donald G. Truhlar   : smd solvation model
   Lars Goerigk                                  : TD-DFT with DH, B97 family of functionals
   V. Asgeirsson, H. Jonsson                     : NEB implementation
   FAccTs GmbH                                   : IRC, NEB, NEB-TS, DLPNO-Multilevel, CI-OPT
                                                   MM, QMMM, 2- and 3-layer-ONIOM, Crystal-QMMM,
                                                   LR-CPCM, SF, NACMEs, symmetry and pop. for TD-DFT,
                                                   nearIR, NL-DFT gradient (VV10), updates on ESD,
                                                   ML-optimized integration grids
   S Lehtola, MJT Oliveira, MAL Marques          : LibXC Library
   Liviu Ungur et al                             : ANISO software


 Your calculation uses the libint2 library for the computation of 2-el integrals
 For citations please refer to: http://libint.valeyev.net

 Your ORCA version has been built with support for libXC version: 5.1.0
 For citations please refer to: https://tddft.org/programs/libxc/

 This ORCA versions uses:
   CBLAS   interface :  Fast vector & matrix operations
   LAPACKE interface :  Fast linear algebra routines
   SCALAPACK package :  Parallel linear algebra routines
   Shared memory     :  Shared parallel matrices
   BLAS/LAPACK       :  OpenBLAS 0.3.15  USE64BITINT DYNAMIC_ARCH NO_AFFINITY Haswell SINGLE_THREADED
        Core in use  :  Haswell
   Copyright (c) 2011-2014, The OpenBLAS Project




***************************************
The coordinates will be read from file: Ar-2.xyz
***************************************


Your calculation utilizes the geometrical counterpoise correction gCP
Please cite in your paper:
H.Kruse, S. Grimme J.Chem.Phys., 136, (2012), 154101 
   

Your calculation utilizes the atom-pairwise dispersion correction
with the Becke-Johnson damping scheme (D3BJ)
Cite in your paper:
S.Grimme, S.Ehrlich, L.Goerigk, J Comput Chem, (2011), 32, 1456–1465 
S.Grimme, J.Antony, S.Ehrlich and H.Krieg, J.Chem.Phys., 132, (2010), 154104 
   

Your calculation employs the composite approach PBEh-3c.
Please cite in your paper:
S. Grimme, J. G. Brandenburg, C. Bannwarth, A. Hansen J.Chem.Phys., 143, (2015), 054107 
   

================================================================================

----- Orbital basis set information -----
Your calculation utilizes the basis: def2-mSVP

----- AuxJ basis set information -----
Your calculation utilizes the auxiliary basis: def2/J
   F. Weigend, Phys. Chem. Chem. Phys. 8, 1057 (2006).

================================================================================
                                        WARNINGS
                       Please study these warnings very carefully!
================================================================================


WARNING: Geometry Optimization
  ===> : Switching off AutoStart
         For restart on a previous wavefunction, please use MOREAD

INFO   : the flag for use of the SHARK integral package has been found!

================================================================================
                                       INPUT FILE
================================================================================
NAME = OPT_Ar-2.inp
|  1> ! PBEh-3c Opt
|  2> 
|  3> *xyzfile -1 1 Ar-2.xyz
|  4> 
|  5>                          ****END OF INPUT****
================================================================================

                       *****************************
                       * Geometry Optimization Run *
                       *****************************

Geometry optimization settings:
Update method            Update   .... BFGS
Choice of coordinates    CoordSys .... Z-matrix Internals
Initial Hessian          InHess   .... Almoef's Model

Convergence Tolerances:
Energy Change            TolE     ....  5.0000e-06 Eh
Max. Gradient            TolMAXG  ....  3.0000e-04 Eh/bohr
RMS Gradient             TolRMSG  ....  1.0000e-04 Eh/bohr
Max. Displacement        TolMAXD  ....  4.0000e-03 bohr
RMS Displacement         TolRMSD  ....  2.0000e-03 bohr
Strict Convergence                ....  False
------------------------------------------------------------------------------
                        ORCA OPTIMIZATION COORDINATE SETUP
------------------------------------------------------------------------------

The optimization will be done in new redundant internal coordinates
Making redundant internal coordinates   ...  (new redundants) done
Evaluating the initial hessian          ...  (Almloef) done
Evaluating the coordinates              ...  done
Calculating the B-matrix                .... done
Calculating the G-matrix                .... done
Diagonalizing the G-matrix              .... done
The first mode is                       ....   21
The number of degrees of freedom        ....   24

    -----------------------------------------------------------------
                    Redundant Internal Coordinates


    -----------------------------------------------------------------
         Definition                    Initial Value    Approx d2E/dq
    -----------------------------------------------------------------
      1. B(C   1,C   0)                  1.3811         0.645646   
      2. B(C   2,C   1)                  1.3840         0.638679   
      3. B(C   3,C   2)                  1.3811         0.645635   
      4. B(C   4,C   3)                  1.4816         0.446333   
      5. B(C   4,C   0)                  1.4816         0.446321   
      6. B(H   5,C   4)                  1.1094         0.335361   
      7. B(H   6,C   3)                  1.0816         0.371317   
      8. B(H   7,C   2)                  1.0818         0.371092   
      9. B(H   8,C   1)                  1.0818         0.371087   
     10. B(H   9,C   0)                  1.0817         0.371315   
     11. A(C   4,C   0,H   9)          126.3636         0.335695   
     12. A(C   1,C   0,H   9)          125.2061         0.357196   
     13. A(C   1,C   0,C   4)          108.4302         0.412279   
     14. A(C   0,C   1,H   8)          124.5974         0.357159   
     15. A(C   2,C   1,H   8)          125.4996         0.356501   
     16. A(C   0,C   1,C   2)          109.9030         0.439594   
     17. A(C   1,C   2,C   3)          109.9030         0.439592   
     18. A(C   3,C   2,H   7)          124.5975         0.357159   
     19. A(C   1,C   2,H   7)          125.4995         0.356502   
     20. A(C   4,C   3,H   6)          126.3639         0.335697   
     21. A(C   2,C   3,H   6)          125.2058         0.357196   
     22. A(C   2,C   3,C   4)          108.4303         0.412280   
     23. A(C   3,C   4,H   5)          128.3348         0.330075   
     24. A(C   0,C   4,H   5)          128.3318         0.330073   
     25. A(C   0,C   4,C   3)          103.3335         0.386364   
     26. D(H   8,C   1,C   0,H   9)     -0.0004         0.028997   
     27. D(C   2,C   1,C   0,C   4)      0.0015         0.028997   
     28. D(C   2,C   1,C   0,H   9)    179.9991         0.028997   
     29. D(H   8,C   1,C   0,C   4)   -179.9980         0.028997   
     30. D(C   3,C   2,C   1,H   8)    179.9989         0.028333   
     31. D(H   7,C   2,C   1,C   0)   -179.9988         0.028333   
     32. D(C   3,C   2,C   1,C   0)     -0.0006         0.028333   
     33. D(H   7,C   2,C   1,H   8)      0.0007         0.028333   
     34. D(H   6,C   3,C   2,H   7)     -0.0006         0.028996   
     35. D(H   6,C   3,C   2,C   1)   -179.9988         0.028996   
     36. D(C   4,C   3,C   2,H   7)    179.9976         0.028996   
     37. D(C   4,C   3,C   2,C   1)     -0.0006         0.028996   
     38. D(H   5,C   4,C   0,C   1)    179.9840         0.013583   
     39. D(C   3,C   4,C   0,H   9)   -179.9993         0.013583   
     40. D(C   3,C   4,C   0,C   1)     -0.0018         0.013583   
     41. D(H   5,C   4,C   3,H   6)      0.0138         0.013584   
     42. D(H   5,C   4,C   3,C   2)   -179.9843         0.013584   
     43. D(C   0,C   4,C   3,H   6)    179.9996         0.013584   
     44. D(C   0,C   4,C   3,C   2)      0.0014         0.013584   
     45. D(H   5,C   4,C   0,H   9)     -0.0136         0.013583   
    -----------------------------------------------------------------

Number of atoms                         .... 10
Number of degrees of freedom            .... 45

         *************************************************************
         *                GEOMETRY OPTIMIZATION CYCLE   1            *
         *************************************************************
---------------------------------
CARTESIAN COORDINATES (ANGSTROEM)
---------------------------------
  C     -5.032820   -9.080960   -7.287090
  C     -5.007910   -8.072160   -6.344200
  C     -3.957800   -7.209200   -6.605110
  C     -3.269250   -7.631710   -7.725260
  C     -3.916210   -8.862770   -8.236100
  H     -3.632610   -9.474310   -9.117180
  H     -2.404700   -7.138530   -8.148690
  H     -3.706190   -6.332140   -6.023920
  H     -5.709600   -7.978490   -5.526160
  H     -5.751460   -9.888810   -7.317170

----------------------------
CARTESIAN COORDINATES (A.U.)
----------------------------
  NO LB      ZA    FRAG     MASS         X           Y           Z
   0 C     6.0000    0    12.011   -9.510651  -17.160527  -13.770604
   1 C     6.0000    0    12.011   -9.463578  -15.254172  -11.988801
   2 C     6.0000    0    12.011   -7.479158  -13.623414  -12.481849
   3 C     6.0000    0    12.011   -6.177987  -14.421842  -14.598626
   4 C     6.0000    0    12.011   -7.400564  -16.748208  -15.563973
   5 H     1.0000    0     1.008   -6.864638  -17.903851  -17.228973
   6 H     1.0000    0     1.008   -4.544224  -13.489867  -15.398792
   7 H     1.0000    0     1.008   -7.003684  -11.966010  -11.383559
   8 H     1.0000    0     1.008  -10.789580  -15.077161  -10.442929
   9 H     1.0000    0     1.008  -10.868684  -18.687143  -13.827447

--------------------------------
INTERNAL COORDINATES (ANGSTROEM)
--------------------------------
 C      0   0   0     0.000000000000     0.00000000     0.00000000
 C      1   0   0     1.381064625642     0.00000000     0.00000000
 C      2   1   0     1.384017702849   109.90303799     0.00000000
 C      3   2   1     1.381069087736   109.90295468     0.00000000
 C      4   3   2     1.481561159993   108.43030087     0.00000000
 H      5   4   3     1.109374642761   128.33477639   180.01565035
 H      4   3   2     1.081649749133   125.20581581   180.00118870
 H      3   2   1     1.081814980392   125.49950466   180.00123912
 H      2   1   3     1.081819008245   124.59735346   180.00050072
 H      1   2   3     1.081651458881   125.20611715   179.99912763

---------------------------
INTERNAL COORDINATES (A.U.)
---------------------------
 C      0   0   0     0.000000000000     0.00000000     0.00000000
 C      1   0   0     2.609833915710     0.00000000     0.00000000
 C      2   1   0     2.615414422884   109.90303799     0.00000000
 C      3   2   1     2.609842347846   109.90295468     0.00000000
 C      4   3   2     2.799744843042   108.43030087     0.00000000
 H      5   4   3     2.096414254734   128.33477639   180.01565035
 H      4   3   2     2.044021798686   125.20581581   180.00118870
 H      3   2   1     2.044334040514   125.49950466   180.00123912
 H      2   1   3     2.044341652053   124.59735346   180.00050072
 H      1   2   3     2.044025029642   125.20611715   179.99912763

---------------------
BASIS SET INFORMATION
---------------------
There are 2 groups of distinct atoms

 Group   1 Type C   : 8s4p1d contracted to 4s2p1d pattern {5111/31/1}
 Group   2 Type H   : 4s contracted to 2s pattern {31}

Atom   0C    basis set group =>   1
Atom   1C    basis set group =>   1
Atom   2C    basis set group =>   1
Atom   3C    basis set group =>   1
Atom   4C    basis set group =>   1
Atom   5H    basis set group =>   2
Atom   6H    basis set group =>   2
Atom   7H    basis set group =>   2
Atom   8H    basis set group =>   2
Atom   9H    basis set group =>   2
---------------------------------
AUXILIARY/J BASIS SET INFORMATION
---------------------------------
There are 2 groups of distinct atoms

 Group   1 Type C   : 12s5p4d2f1g contracted to 6s4p3d1f1g pattern {711111/2111/211/2/1}
 Group   2 Type H   : 5s2p1d contracted to 3s1p1d pattern {311/2/1}

Atom   0C    basis set group =>   1
Atom   1C    basis set group =>   1
Atom   2C    basis set group =>   1
Atom   3C    basis set group =>   1
Atom   4C    basis set group =>   1
Atom   5H    basis set group =>   2
Atom   6H    basis set group =>   2
Atom   7H    basis set group =>   2
Atom   8H    basis set group =>   2
Atom   9H    basis set group =>   2
------------------------------------------------------------------------------
                           ORCA GTO INTEGRAL CALCULATION
                           -- RI-GTO INTEGRALS CHOSEN --
------------------------------------------------------------------------------
------------------------------------------------------------------------------
                   ___                                                        
                  /   \      - P O W E R E D   B Y -                         
                 /     \                                                     
                 |  |  |   _    _      __       _____    __    __             
                 |  |  |  | |  | |    /  \     |  _  \  |  |  /  |          
                  \  \/   | |  | |   /    \    | | | |  |  | /  /          
                 / \  \   | |__| |  /  /\  \   | |_| |  |  |/  /          
                |  |  |   |  __  | /  /__\  \  |    /   |      \           
                |  |  |   | |  | | |   __   |  |    \   |  |\   \          
                \     /   | |  | | |  |  |  |  | |\  \  |  | \   \       
                 \___/    |_|  |_| |__|  |__|  |_| \__\ |__|  \__/        
                                                                              
                      - O R C A' S   B I G   F R I E N D -                    
                                      &                                       
                       - I N T E G R A L  F E E D E R -                       
                                                                              
 v1 FN, 2020, v2 2021                                                         
------------------------------------------------------------------------------


Reading SHARK input file OPT_Ar-2.SHARKINP.tmp ... ok
----------------------
SHARK INTEGRAL PACKAGE
----------------------

Number of atoms                             ...     10
Number of basis functions                   ...     85
Number of shells                            ...     45
Maximum angular momentum                    ...      2
Integral batch strategy                     ... SHARK/LIBINT Hybrid
RI-J (if used) integral strategy            ... SPLIT-RIJ (Revised 2003 algorithm where possible)
Printlevel                                  ...      1
Contraction scheme used                     ... SEGMENTED contraction
Coulomb Range Separation                    ... NOT USED
Exchange Range Separation                   ... NOT USED
Finite Nucleus Model                        ... NOT USED
Auxiliary Coulomb fitting basis             ... AVAILABLE
   # of basis functions in Aux-J            ...    300
   # of shells in Aux-J                     ...    100
   Maximum angular momentum in Aux-J        ...      4
Auxiliary J/K fitting basis                 ... NOT available
Auxiliary Correlation fitting basis         ... NOT available
Auxiliary 'external' fitting basis          ... NOT available
Integral threshold                          ...     2.500000e-11
Primitive cut-off                           ...     2.500000e-12
Primitive pair pre-selection threshold      ...     2.500000e-12

Calculating pre-screening integrals         ... done (  0.0 sec) Dimension = 45
Organizing shell pair data                  ... done (  0.0 sec)
Shell pair information
Total number of shell pairs                 ...      1035
Shell pairs after pre-screening             ...      1010
Total number of primitive shell pairs       ...      3735
Primitive shell pairs kept                  ...      2851
          la=0 lb=0:    440 shell pairs
          la=1 lb=0:    300 shell pairs
          la=1 lb=1:     55 shell pairs
          la=2 lb=0:    150 shell pairs
          la=2 lb=1:     50 shell pairs
          la=2 lb=2:     15 shell pairs

Calculating one electron integrals          ... done (  0.0 sec)
Calculating RI/J V-Matrix + Cholesky decomp.... done (  0.0 sec)
Calculating Nuclear repulsion               ... done (  0.0 sec) ENN=    148.346035957047 Eh

SHARK setup successfully completed in   0.3 seconds

Maximum memory used throughout the entire GTOINT-calculation: 9.7 MB
-------------------------------------------------------------------------------
                                 ORCA SCF
-------------------------------------------------------------------------------

------------
SCF SETTINGS
------------
Hamiltonian:
 Density Functional     Method          .... DFT(GTOs)
 Exchange Functional    Exchange        .... PBE
   PBE kappa parameter   XKappa         ....  1.024500
   PBE mue parameter    XMuePBE         ....  0.123457
 Correlation Functional Correlation     .... PBE
   PBE beta parameter  CBetaPBE         ....  0.030000
 LDA part of GGA corr.  LDAOpt          .... PW91-LDA
 Gradients option       PostSCFGGA      .... off
 Hybrid DFT is turned on
   Fraction HF Exchange ScalHFX         ....  0.420000
   Scaling of DF-GGA-X  ScalDFX         ....  0.580000
   Scaling of DF-GGA-C  ScalDFC         ....  1.000000
   Scaling of DF-LDA-C  ScalLDAC        ....  1.000000
   Perturbative correction              ....  0.000000
   Density functional embedding theory  .... OFF
 RI-approximation to the Coulomb term is turned on
   Number of AuxJ basis functions       .... 300
   RIJ-ON(X) (HFX calculated with O(N)) .... on
   Number of AuxJ basis functions       .... 300
   RIJ-COSX (HFX calculated with COS-X)).... on


General Settings:
 Integral files         IntName         .... OPT_Ar-2
 Hartree-Fock type      HFTyp           .... RHF
 Total Charge           Charge          ....   -1
 Multiplicity           Mult            ....    1
 Number of Electrons    NEL             ....   36
 Basis Dimension        Dim             ....   85
 Nuclear Repulsion      ENuc            ....    148.3460359570 Eh

Convergence Acceleration:
 DIIS                   CNVDIIS         .... on
   Start iteration      DIISMaxIt       ....    12
   Startup error        DIISStart       ....  0.200000
   # of expansion vecs  DIISMaxEq       ....     5
   Bias factor          DIISBfac        ....   1.050
   Max. coefficient     DIISMaxC        ....  10.000
 Trust-Rad. Augm. Hess. CNVTRAH         .... auto
   Auto Start mean grad. ratio tolernc. ....  1.125000
   Auto Start start iteration           ....    20
   Auto Start num. interpolation iter.  ....    10
   Max. Number of Micro iterations      ....    16
   Max. Number of Macro iterations      .... Maxiter - #DIIS iter
   Number of Davidson start vectors     ....     2
   Converg. threshold I  (grad. norm)   ....   1.000e-05
   Converg. threshold II (energy diff.) ....   1.000e-08
   Grad. Scal. Fac. for Micro threshold ....   0.100
   Minimum threshold for Micro iter.    ....   0.010
   NR start threshold (gradient norm)   ....   0.001
   Initial trust radius                 ....   0.400
   Minimum AH scaling param. (alpha)    ....   1.000
   Maximum AH scaling param. (alpha)    .... 1000.000
   Orbital update algorithm             .... Taylor
   White noise on init. David. guess    .... on
   Maximum white noise                  ....   0.010
   Quad. conv. algorithm                .... NR
   COSX micro iterations for RIJONX calc.... off
 SOSCF                  CNVSOSCF        .... on
   Start iteration      SOSCFMaxIt      ....   150
   Startup grad/error   SOSCFStart      ....  0.003300
 Level Shifting         CNVShift        .... on
   Level shift para.    LevelShift      ....    0.2500
   Turn off err/grad.   ShiftErr        ....    0.0010
 Zerner damping         CNVZerner       .... off
 Static damping         CNVDamp         .... on
   Fraction old density DampFac         ....    0.7000
   Max. Damping (<1)    DampMax         ....    0.9800
   Min. Damping (>=0)   DampMin         ....    0.0000
   Turn off err/grad.   DampErr         ....    0.1000
 Fernandez-Rico         CNVRico         .... off

SCF Procedure:
 Maximum # iterations   MaxIter         ....   125
 SCF integral mode      SCFMode         .... Direct
   Integral package                     .... SHARK and LIBINT hybrid scheme
 Reset frequency        DirectResetFreq ....    20
 Integral Threshold     Thresh          ....  2.500e-11 Eh
 Primitive CutOff       TCut            ....  2.500e-12 Eh

Convergence Tolerance:
 Convergence Check Mode ConvCheckMode   .... Total+1el-Energy
 Convergence forced     ConvForced      .... 0
 Energy Change          TolE            ....  1.000e-08 Eh
 1-El. energy change                    ....  1.000e-05 Eh
 Orbital Gradient       TolG            ....  1.000e-05
 Orbital Rotation angle TolX            ....  1.000e-05
 DIIS Error             TolErr          ....  5.000e-07


Diagonalization of the overlap matrix:
Smallest eigenvalue                        ... 1.633e-03
Time for diagonalization                   ...    0.013 sec
Threshold for overlap eigenvalues          ... 1.000e-08
Number of eigenvalues below threshold      ... 0
Time for construction of square roots      ...    0.000 sec
Total time needed                          ...    0.013 sec

--------------------------------
INITIAL GUESS: MINIMAL BASIS EHT
--------------------------------
The minimal basis has 30 functions
EHT matrix was diagonalized
Basis set overlap was calculated now projecting the orbitals
Using GuessMode=FMatrix for the initial guess
C*T matrix was formed
Effective Fockian was calculated
Effective Fockian was diagonalized
Initial density was built
                      ------------------
                      INITIAL GUESS DONE
                      ------------------
-------------------
DFT GRID GENERATION
-------------------

General Integration Accuracy     IntAcc      ... 4.159
Radial Grid Type                 RadialGrid  ... OptM3 with GC (2021)
Angular Grid (max. ang.)         AngularGrid ... 3 (Lebedev-194)
Angular grid pruning method      GridPruning ... 4 (adaptive)
Weight generation scheme         WeightScheme... Becke
Basis function cutoff            BFCut       ... 1.0000e-11
Integration weight cutoff        WCut        ... 1.0000e-14
Angular grids for H and He will be reduced by one unit
Partially contracted basis set               ... off
Rotationally invariant grid construction     ... off

Total number of grid points                  ...    23679
Total number of batches                      ...      376
Average number of points per batch           ...       62
Average number of grid points per atom       ...     2368
Time for grid setup =    0.299 sec

--------------------
COSX GRID GENERATION
--------------------

GRIDX 1
-------
General Integration Accuracy     IntAcc      ... 3.816
Radial Grid Type                 RadialGrid  ... OptM3 with GC (2021)
Angular Grid (max. ang.)         AngularGrid ... 1 (Lebedev-50)
Angular grid pruning method      GridPruning ... 4 (adaptive)
Weight generation scheme         WeightScheme... Becke
Basis function cutoff            BFCut       ... 1.0000e-11
Integration weight cutoff        WCut        ... 1.0000e-14
Angular grids for H and He will be reduced by one unit
Partially contracted basis set               ... on
Rotationally invariant grid construction     ... off

Total number of grid points                  ...     5943
Total number of batches                      ...       96
Average number of points per batch           ...       61
Average number of grid points per atom       ...      594
UseSFitting                                  ... on

GRIDX 2
-------
General Integration Accuracy     IntAcc      ... 4.020
Radial Grid Type                 RadialGrid  ... OptM3 with GC (2021)
Angular Grid (max. ang.)         AngularGrid ... 2 (Lebedev-110)
Angular grid pruning method      GridPruning ... 4 (adaptive)
Weight generation scheme         WeightScheme... Becke
Basis function cutoff            BFCut       ... 1.0000e-11
Integration weight cutoff        WCut        ... 1.0000e-14
Angular grids for H and He will be reduced by one unit
Partially contracted basis set               ... on
Rotationally invariant grid construction     ... off

Total number of grid points                  ...    13049
Total number of batches                      ...      208
Average number of points per batch           ...       62
Average number of grid points per atom       ...     1305
UseSFitting                                  ... on

GRIDX 3
-------
General Integration Accuracy     IntAcc      ... 4.338
Radial Grid Type                 RadialGrid  ... OptM3 with GC (2021)
Angular Grid (max. ang.)         AngularGrid ... 3 (Lebedev-194)
Angular grid pruning method      GridPruning ... 4 (adaptive)
Weight generation scheme         WeightScheme... Becke
Basis function cutoff            BFCut       ... 1.0000e-11
Integration weight cutoff        WCut        ... 1.0000e-14
Angular grids for H and He will be reduced by one unit
Partially contracted basis set               ... on
Rotationally invariant grid construction     ... off

Total number of grid points                  ...    28763
Total number of batches                      ...      455
Average number of points per batch           ...       63
Average number of grid points per atom       ...     2876
UseSFitting                                  ... on

Time for X-Grid setup             =    0.994 sec

--------------
SCF ITERATIONS
--------------
ITER       Energy         Delta-E        Max-DP      RMS-DP      [F,P]     Damp
               ***  Starting incremental Fock matrix formation  ***
  0   -192.5178909961   0.000000000000 0.12869527  0.00973274  0.4296118 0.7000
  1   -192.6861099852  -0.168218989068 0.09736475  0.00681785  0.3006691 0.7000
  2   -192.8005418973  -0.114431912154 0.07191717  0.00470763  0.2094614 0.7000
                               ***Turning on DIIS***
  3   -192.8812994366  -0.080757539333 0.05219455  0.00328184  0.1462277 0.7000
  4   -192.9387170894  -0.057417652719 0.03839591  0.00240768  0.1022710 0.7000
  5   -192.9794606763  -0.040743586900 0.09032056  0.00580152  0.0717563 0.0000
                      *** Initiating the SOSCF procedure ***
                           *** Shutting down DIIS ***
                      *** Re-Reading the Fockian *** 
                      *** Removing any level shift *** 
ITER      Energy       Delta-E        Grad      Rot      Max-DP    RMS-DP
  6   -193.07670037  -0.0972396891  0.002697  0.002697  0.001566  0.000163
               *** Restarting incremental Fock matrix formation ***
  7   -193.07686453  -0.0001641615  0.000564  0.000794  0.001372  0.000094
  8   -193.07687028  -0.0000057486  0.000451  0.000525  0.000544  0.000042
  9   -193.07687184  -0.0000015617  0.000134  0.000192  0.000191  0.000016
 10   -193.07687194  -0.0000001071  0.000056  0.000086  0.000077  0.000006
 11   -193.07687198  -0.0000000314  0.000036  0.000040  0.000043  0.000004
 12   -193.07687198  -0.0000000082  0.000004  0.000004  0.000005  0.000000
                 **** Energy Check signals convergence ****
              ***Rediagonalizing the Fockian in SOSCF/NRSCF***

               *****************************************************
               *                     SUCCESS                       *
               *           SCF CONVERGED AFTER  13 CYCLES          *
               *****************************************************

Old exchange energy                            =    -11.698277897 Eh
New exchange energy                            =    -11.698281341 Eh
Exchange energy change after final integration =     -0.000003443 Eh
Total energy after final integration           =   -193.076875428 Eh
Final COS-X integration done in                =     3.546 sec

----------------
TOTAL SCF ENERGY
----------------

Total Energy       :         -193.07687543 Eh           -5253.88888 eV

Components:
Nuclear Repulsion  :          148.34603596 Eh            4036.70086 eV
Electronic Energy  :         -341.42291139 Eh           -9290.58974 eV
One Electron Energy:         -561.03762200 Eh          -15266.60983 eV
Two Electron Energy:          219.61471062 Eh            5976.02009 eV
Max COSX asymmetry :            0.00000552 Eh               0.00015 eV

Virial components:
Potential Energy   :         -384.51702682 Eh          -10463.24024 eV
Kinetic Energy     :          191.44015140 Eh            5209.35136 eV
Virial Ratio       :            2.00854953


DFT components:
N(Alpha)           :       18.000056658881 electrons
N(Beta)            :       18.000056658881 electrons
N(Total)           :       36.000113317762 electrons
E(X)               :      -15.530484225696 Eh       
E(C)               :       -1.539704760906 Eh       
E(XC)              :      -17.070188986602 Eh       
DFET-embed. en.    :        0.000000000000 Eh       

---------------
SCF CONVERGENCE
---------------

  Last Energy change         ...   -7.8845e-10  Tolerance :   1.0000e-08
  Last MAX-Density change    ...    1.5543e-15  Tolerance :   1.0000e-07
  Last RMS-Density change    ...    5.5176e-17  Tolerance :   5.0000e-09
  Last Orbital Gradient      ...    5.6803e-07  Tolerance :   1.0000e-05
  Last Orbital Rotation      ...    8.9304e-07  Tolerance :   1.0000e-05

             **** THE GBW FILE WAS UPDATED (OPT_Ar-2.gbw) ****
             **** DENSITY OPT_Ar-2.scfp WAS UPDATED ****
             **** ENERGY FILE WAS UPDATED (OPT_Ar-2.en.tmp) ****
             **** THE GBW FILE WAS UPDATED (OPT_Ar-2.gbw) ****
             **** DENSITY OPT_Ar-2.scfp WAS UPDATED ****
----------------
ORBITAL ENERGIES
----------------

  NO   OCC          E(Eh)            E(eV) 
   0   2.0000     -10.209361      -277.8108 
   1   2.0000     -10.201957      -277.6094 
   2   2.0000     -10.201924      -277.6085 
   3   2.0000     -10.192249      -277.3452 
   4   2.0000     -10.191642      -277.3287 
   5   2.0000      -0.707632       -19.2556 
   6   2.0000      -0.545334       -14.8393 
   7   2.0000      -0.532192       -14.4817 
   8   2.0000      -0.380745       -10.3606 
   9   2.0000      -0.365656        -9.9500 
  10   2.0000      -0.352623        -9.5954 
  11   2.0000      -0.212856        -5.7921 
  12   2.0000      -0.207481        -5.6459 
  13   2.0000      -0.200567        -5.4577 
  14   2.0000      -0.176342        -4.7985 
  15   2.0000      -0.175087        -4.7644 
  16   2.0000      -0.012719        -0.3461 
  17   2.0000      -0.003170        -0.0863 
  18   0.0000       0.313775         8.5383 
  19   0.0000       0.338716         9.2169 
  20   0.0000       0.357963         9.7407 
  21   0.0000       0.405119        11.0238 
  22   0.0000       0.419551        11.4166 
  23   0.0000       0.423641        11.5279 
  24   0.0000       0.424948        11.5634 
  25   0.0000       0.467054        12.7092 
  26   0.0000       0.476153        12.9568 
  27   0.0000       0.549251        14.9459 
  28   0.0000       0.553192        15.0531 
  29   0.0000       0.681951        18.5568 
  30   0.0000       0.768338        20.9075 
  31   0.0000       0.810535        22.0558 
  32   0.0000       0.812775        22.1167 
  33   0.0000       0.820373        22.3235 
  34   0.0000       0.840267        22.8648 
  35   0.0000       0.848547        23.0901 
  36   0.0000       0.888078        24.1658 
  37   0.0000       0.894486        24.3402 
  38   0.0000       0.898678        24.4543 
  39   0.0000       0.915566        24.9138 
  40   0.0000       0.937788        25.5185 
  41   0.0000       1.054593        28.6969 
  42   0.0000       1.075443        29.2643 
  43   0.0000       1.102956        30.0130 
  44   0.0000       1.136583        30.9280 
  45   0.0000       1.138057        30.9681 
  46   0.0000       1.198101        32.6020 
  47   0.0000       1.209657        32.9164 
  48   0.0000       1.238342        33.6970 
  49   0.0000       1.326821        36.1046 
  50   0.0000       1.347194        36.6590 
  51   0.0000       1.366523        37.1850 
  52   0.0000       1.381061        37.5806 
  53   0.0000       1.535487        41.7827 
  54   0.0000       1.550297        42.1857 
  55   0.0000       1.655519        45.0490 
  56   0.0000       1.671516        45.4843 
  57   0.0000       1.694183        46.1011 
  58   0.0000       1.844761        50.1985 
  59   0.0000       1.848246        50.2933 
  60   0.0000       1.994587        54.2755 
  61   0.0000       2.115118        57.5553 
  62   0.0000       2.201279        59.8999 
  63   0.0000       2.282422        62.1079 
  64   0.0000       2.308023        62.8045 
  65   0.0000       2.354437        64.0675 
  66   0.0000       2.473820        67.3161 
  67   0.0000       2.522131        68.6307 
  68   0.0000       2.525545        68.7236 
  69   0.0000       2.547184        69.3124 
  70   0.0000       2.572668        70.0058 
  71   0.0000       2.621075        71.3231 
  72   0.0000       2.835759        77.1649 
  73   0.0000       2.838492        77.2393 
  74   0.0000       2.892840        78.7182 
  75   0.0000       2.918385        79.4133 
  76   0.0000       2.946197        80.1701 
  77   0.0000       3.213375        87.4404 
  78   0.0000       3.249681        88.4283 
  79   0.0000       3.348696        91.1226 
  80   0.0000      13.486742       366.9929 
  81   0.0000      13.935662       379.2086 
  82   0.0000      13.962785       379.9467 
  83   0.0000      14.397068       391.7641 
  84   0.0000      14.543346       395.7446 

                    ********************************
                    * MULLIKEN POPULATION ANALYSIS *
                    ********************************

-----------------------
MULLIKEN ATOMIC CHARGES
-----------------------
   0 C :   -0.294011
   1 C :   -0.269236
   2 C :   -0.268702
   3 C :   -0.293785
   4 C :   -0.342587
   5 H :    0.093414
   6 H :    0.094442
   7 H :    0.092858
   8 H :    0.093080
   9 H :    0.094527
Sum of atomic charges:   -1.0000000

--------------------------------
MULLIKEN REDUCED ORBITAL CHARGES
--------------------------------
  0 C s       :     3.207219  s :     3.207219
      pz      :     1.009665  p :     3.047092
      px      :     1.020037
      py      :     1.017391
      dz2     :     0.010564  d :     0.039700
      dxz     :     0.006356
      dyz     :     0.006771
      dx2y2   :     0.005071
      dxy     :     0.010938
  1 C s       :     3.174516  s :     3.174516
      pz      :     1.019473  p :     3.052388
      px      :     1.027296
      py      :     1.005619
      dz2     :     0.006701  d :     0.042333
      dxz     :     0.011054
      dyz     :     0.007458
      dx2y2   :     0.010023
      dxy     :     0.007097
  2 C s       :     3.174453  s :     3.174453
      pz      :     1.014433  p :     3.051921
      px      :     1.020745
      py      :     1.016743
      dz2     :     0.008203  d :     0.042328
      dxz     :     0.006779
      dyz     :     0.010543
      dx2y2   :     0.008982
      dxy     :     0.007820
  3 C s       :     3.207114  s :     3.207114
      pz      :     1.016196  p :     3.046974
      px      :     1.028461
      py      :     1.002317
      dz2     :     0.009075  d :     0.039697
      dxz     :     0.008474
      dyz     :     0.006694
      dx2y2   :     0.006201
      dxy     :     0.009252
  4 C s       :     3.231710  s :     3.231710
      pz      :     1.029449  p :     3.075957
      px      :     1.029826
      py      :     1.016683
      dz2     :     0.005401  d :     0.034920
      dxz     :     0.006948
      dyz     :     0.009173
      dx2y2   :     0.007880
      dxy     :     0.005518
  5 H s       :     0.906586  s :     0.906586
  6 H s       :     0.905558  s :     0.905558
  7 H s       :     0.907142  s :     0.907142
  8 H s       :     0.906920  s :     0.906920
  9 H s       :     0.905473  s :     0.905473


                     *******************************
                     * LOEWDIN POPULATION ANALYSIS *
                     *******************************

----------------------
LOEWDIN ATOMIC CHARGES
----------------------
   0 C :   -0.269287
   1 C :   -0.274561
   2 C :   -0.274530
   3 C :   -0.269367
   4 C :   -0.305507
   5 H :    0.079154
   6 H :    0.078444
   7 H :    0.078607
   8 H :    0.078623
   9 H :    0.078424

-------------------------------
LOEWDIN REDUCED ORBITAL CHARGES
-------------------------------
  0 C s       :     2.901673  s :     2.901673
      pz      :     1.104996  p :     3.279895
      px      :     1.085454
      py      :     1.089445
      dz2     :     0.022712  d :     0.087719
      dxz     :     0.015748
      dyz     :     0.016733
      dx2y2   :     0.012082
      dxy     :     0.020444
  1 C s       :     2.879137  s :     2.879137
      pz      :     1.088583  p :     3.297887
      px      :     1.095937
      py      :     1.113367
      dz2     :     0.015058  d :     0.097537
      dxz     :     0.021792
      dyz     :     0.019233
      dx2y2   :     0.023428
      dxy     :     0.018025
  2 C s       :     2.879112  s :     2.879112
      pz      :     1.102628  p :     3.297885
      px      :     1.114107
      py      :     1.081151
      dz2     :     0.019802  d :     0.097533
      dxz     :     0.017169
      dyz     :     0.022011
      dx2y2   :     0.019633
      dxy     :     0.018917
  3 C s       :     2.901645  s :     2.901645
      pz      :     1.105641  p :     3.280004
      px      :     1.086269
      py      :     1.088094
      dz2     :     0.020529  d :     0.087718
      dxz     :     0.018905
      dyz     :     0.015605
      dx2y2   :     0.013753
      dxy     :     0.018925
  4 C s       :     2.927575  s :     2.927575
      pz      :     1.095254  p :     3.304072
      px      :     1.111304
      py      :     1.097514
      dz2     :     0.010716  d :     0.073860
      dxz     :     0.015543
      dyz     :     0.017339
      dx2y2   :     0.017941
      dxy     :     0.012321
  5 H s       :     0.920846  s :     0.920846
  6 H s       :     0.921556  s :     0.921556
  7 H s       :     0.921393  s :     0.921393
  8 H s       :     0.921377  s :     0.921377
  9 H s       :     0.921576  s :     0.921576


                      *****************************
                      * MAYER POPULATION ANALYSIS *
                      *****************************

  NA   - Mulliken gross atomic population
  ZA   - Total nuclear charge
  QA   - Mulliken gross atomic charge
  VA   - Mayer's total valence
  BVA  - Mayer's bonded valence
  FA   - Mayer's free valence

  ATOM       NA         ZA         QA         VA         BVA        FA
  0 C      6.2940     6.0000    -0.2940     3.8688     3.8688    -0.0000
  1 C      6.2692     6.0000    -0.2692     3.8723     3.8723     0.0000
  2 C      6.2687     6.0000    -0.2687     3.8723     3.8723     0.0000
  3 C      6.2938     6.0000    -0.2938     3.8686     3.8686     0.0000
  4 C      6.3426     6.0000    -0.3426     3.8340     3.8340     0.0000
  5 H      0.9066     1.0000     0.0934     0.9486     0.9486    -0.0000
  6 H      0.9056     1.0000     0.0944     0.9410     0.9410    -0.0000
  7 H      0.9071     1.0000     0.0929     0.9379     0.9379     0.0000
  8 H      0.9069     1.0000     0.0931     0.9379     0.9379     0.0000
  9 H      0.9055     1.0000     0.0945     0.9410     0.9410    -0.0000

  Mayer bond orders larger than 0.100000
B(  0-C ,  1-C ) :   1.4657 B(  0-C ,  4-C ) :   1.4063 B(  0-C ,  9-H ) :   0.9397 
B(  1-C ,  2-C ) :   1.4098 B(  1-C ,  8-H ) :   0.9390 B(  2-C ,  3-C ) :   1.4656 
B(  2-C ,  7-H ) :   0.9390 B(  3-C ,  4-C ) :   1.4062 B(  3-C ,  6-H ) :   0.9397 
B(  4-C ,  5-H ) :   0.9396 

-------
TIMINGS
-------

Total SCF time: 0 days 0 hours 0 min 30 sec 

Total time                  ....      30.530 sec
Sum of individual times     ....      30.341 sec  ( 99.4%)

Fock matrix formation       ....      29.003 sec  ( 95.0%)
  Split-RI-J                ....       2.453 sec  (  8.5% of F)
  Chain of spheres X        ....      22.034 sec  ( 76.0% of F)
  XC integration            ....       4.492 sec  ( 15.5% of F)
    Basis function eval.    ....       1.630 sec  ( 36.3% of XC)
    Density eval.           ....       1.084 sec  ( 24.1% of XC)
    XC-Functional eval.     ....       0.744 sec  ( 16.6% of XC)
    XC-Potential eval.      ....       0.807 sec  ( 18.0% of XC)
Diagonalization             ....       0.011 sec  (  0.0%)
Density matrix formation    ....       0.017 sec  (  0.1%)
Population analysis         ....       0.002 sec  (  0.0%)
Initial guess               ....       0.005 sec  (  0.0%)
Orbital Transformation      ....       0.000 sec  (  0.0%)
Orbital Orthonormalization  ....       0.000 sec  (  0.0%)
DIIS solution               ....       0.002 sec  (  0.0%)
SOSCF solution              ....       0.007 sec  (  0.0%)
Grid generation             ....       1.293 sec  (  4.2%)

Maximum memory used throughout the entire SCF-calculation: 52.4 MB


-------------------------------------------------------------------------------
                          DFT DISPERSION CORRECTION                            
                                                                               
                              DFTD3 V3.1  Rev 1                                
                          USING Becke-Johnson damping                          
-------------------------------------------------------------------------------
The PBEh-3c composite method is recognized
Using three-body term ABC
Active option DFTDOPT                   ...         4   

molecular C6(AA) [au] = 1137.876794 


            DFT-D V3
 parameters
 s6 scaling factor         :     1.0000 
 a1 scaling factor         :     0.4860 
 s8 scaling factor         :     0.0000 
 a2 scaling factor         :     4.5000 
 Damping factor alpha9(ATM):    16.0000 
 ad hoc parameters k1-k3   :    16.0000     1.3333    -4.0000 

 Edisp/kcal,au: -2.654615752255  -0.004230399028 
 E6   /kcal   :  -2.657256636 
 E8   /kcal   :  -0.000000000 
 E6(ABC)      :   0.002640884 
 % E8         :   0.000000000 
 % E6(ABC)    :  -0.099482726 

-------------------------   ----------------
Dispersion correction           -0.004230399
-------------------------   ----------------

------------------   -----------------
gCP correction             0.011452479
------------------   -----------------

-------------------------   --------------------
FINAL SINGLE POINT ENERGY      -193.069653348121
-------------------------   --------------------

------------------------------------------------------------------------------
                         ORCA SCF GRADIENT CALCULATION
------------------------------------------------------------------------------

 ... reading COSX grid (gridx3)
Gradient of the Kohn-Sham DFT energy:
Kohn-Sham wavefunction type      ... RKS
Hartree-Fock exchange scaling    ...    0.420
Number of operators              ...    1
Number of atoms                  ...   10
Basis set dimensions             ...   85
Integral neglect threshold       ... 2.5e-11
Integral primitive cutoff        ... 2.5e-12
SHARK Integral package           ... ON

Nuc. rep. gradient       (SHARK) ... done (  0.0 sec)
HCore & Overlap gradient (SHARK) ... done (  0.1 sec)
RI-J gradient            (SHARK) ... done (  0.7 sec)
COSX-gradient                    ... done (  4.7 sec)
Exchange-correlation gradient    ... done
Dispersion correction            ... done
gCP correction                   ... done

------------------
CARTESIAN GRADIENT
------------------

   1   C   :   -0.037294330    0.006048716    0.044734880
   2   C   :    0.014945554    0.003228250   -0.012445224
   3   C   :   -0.008811013   -0.016371544   -0.006686577
   4   C   :    0.012460206    0.047142781    0.032435548
   5   C   :    0.013967638   -0.029929186   -0.043182568
   6   H   :    0.004828125   -0.010423181   -0.015042445
   7   H   :   -0.001701779    0.000566504    0.002268848
   8   H   :   -0.000278453   -0.002001305   -0.001685712
   9   H   :    0.001473277   -0.000703903   -0.002136362
  10   H   :    0.000383273    0.002278294    0.001870767

Difference to translation invariance:
           :   -0.0000275012   -0.0001645736    0.0001311555

Difference to rotation invariance:
           :   -0.0045888663    0.0015844774    0.0015550593

Norm of the cartesian gradient     ...    0.1047981091
RMS gradient                       ...    0.0191334294
MAX gradient                       ...    0.0471427811

-------
TIMINGS
-------

Total SCF gradient time            ...        7.476 sec

One electron gradient       ....       0.068 sec  (  0.9%)
RI-J Coulomb gradient       ....       0.658 sec  (  8.8%)
COSX gradient               ....       4.743 sec  ( 63.4%)
XC gradient                 ....       1.480 sec  ( 19.8%)

Maximum memory used throughout the entire SCFGRAD-calculation: 41.1 MB
------------------------------------------------------------------------------
                         ORCA GEOMETRY RELAXATION STEP
------------------------------------------------------------------------------

Reading the OPT-File                    .... done
Getting information on internals        .... done
Copying old internal coords+grads       .... done
Making the new internal coordinates     .... (new redundants).... done
Validating the new internal coordinates .... (new redundants).... done
Calculating the B-matrix                .... done
Calculating the G,G- and P matrices     .... done
Transforming gradient to internals      .... done
Projecting the internal gradient        .... done
Number of atoms                         ....  10
Number of internal coordinates          ....  45
Current Energy                          ....  -193.069653348 Eh
Current gradient norm                   ....     0.104798109 Eh/bohr
Maximum allowed component of the step   ....  0.300
Current trust radius                    ....  0.300
Evaluating the initial hessian          ....  (Almloef) done
Projecting the Hessian                  .... done
Forming the augmented Hessian           .... done
Diagonalizing the augmented Hessian     .... done
Last element of RFO vector              ....  0.984790451
Lowest eigenvalues of augmented Hessian:
 -0.013927659  0.013583690  0.018728297  0.020570924  0.021710078
Length of the computed step             ....  0.176429689
The final length of the internal step   ....  0.176429689
Converting the step to cartesian space:
 Initial RMS(Int)=    0.0263005852
Transforming coordinates:
 Iter   0:  RMS(Cart)=    0.0434398052 RMS(Int)=    1.8734137784
 Iter   1:  RMS(Cart)=    0.0008780121 RMS(Int)=    0.9366397144
 Iter   2:  RMS(Cart)=    0.0000262594 RMS(Int)=    0.0000163991
 Iter   3:  RMS(Cart)=    0.0000005659 RMS(Int)=    0.0000004512
 Iter   4:  RMS(Cart)=    0.0000000191 RMS(Int)=    0.0000000120
done
Storing new coordinates                 .... done

                                .--------------------.
          ----------------------|Geometry convergence|-------------------------
          Item                value                   Tolerance       Converged
          ---------------------------------------------------------------------
          RMS gradient        0.0118430378            0.0001000000      NO
          MAX gradient        0.0459904206            0.0003000000      NO
          RMS step            0.0263005852            0.0020000000      NO
          MAX step            0.1029449855            0.0040000000      NO
          ........................................................
          Max(Bonds)      0.0545      Max(Angles)    2.78
          Max(Dihed)        0.07      Max(Improp)    0.00
          ---------------------------------------------------------------------

The optimization has not yet converged - more geometry cycles are needed


    ---------------------------------------------------------------------------
                         Redundant Internal Coordinates
                            (Angstroem and degrees)

        Definition                    Value    dE/dq     Step     New-Value
    ----------------------------------------------------------------------------
     1. B(C   1,C   0)                1.3811 -0.012884  0.0108    1.3919   
     2. B(C   2,C   1)                1.3840 -0.014897  0.0135    1.3975   
     3. B(C   3,C   2)                1.3811 -0.012961  0.0109    1.3920   
     4. B(C   4,C   3)                1.4816  0.045913 -0.0544    1.4272   
     5. B(C   4,C   0)                1.4816  0.045990 -0.0545    1.4271   
     6. B(H   5,C   4)                1.1094  0.018929 -0.0287    1.0807   
     7. B(H   6,C   3)                1.0816 -0.001975  0.0027    1.0844   
     8. B(H   7,C   2)                1.0818 -0.002586  0.0036    1.0854   
     9. B(H   8,C   1)                1.0818 -0.002642  0.0036    1.0855   
    10. B(H   9,C   0)                1.0817 -0.002022  0.0028    1.0844   
    11. A(C   4,C   0,H   9)          126.36  0.002719   -0.34    126.02   
    12. A(C   1,C   0,H   9)          125.21 -0.001756    0.37    125.57   
    13. A(C   1,C   0,C   4)          108.43 -0.000964   -0.03    108.40   
    14. A(C   0,C   1,H   8)          124.60 -0.006460    0.77    125.36   
    15. A(C   2,C   1,H   8)          125.50 -0.005369    0.60    126.10   
    16. A(C   0,C   1,C   2)          109.90  0.011829   -1.36    108.54   
    17. A(C   1,C   2,C   3)          109.90  0.011797   -1.36    108.55   
    18. A(C   3,C   2,H   7)          124.60 -0.006373    0.75    125.35   
    19. A(C   1,C   2,H   7)          125.50 -0.005424    0.61    126.11   
    20. A(C   4,C   3,H   6)          126.36  0.002588   -0.32    126.04   
    21. A(C   2,C   3,H   6)          125.21 -0.001698    0.36    125.56   
    22. A(C   2,C   3,C   4)          108.43 -0.000890   -0.04    108.39   
    23. A(C   3,C   4,H   5)          128.33  0.010874   -1.39    126.95   
    24. A(C   0,C   4,H   5)          128.33  0.010898   -1.39    126.94   
    25. A(C   0,C   4,C   3)          103.33 -0.021773    2.78    106.12   
    26. D(H   8,C   1,C   0,H   9)     -0.00  0.000020   -0.03     -0.03   
    27. D(C   2,C   1,C   0,C   4)      0.00 -0.000018    0.03      0.03   
    28. D(C   2,C   1,C   0,H   9)    180.00  0.000016   -0.02    179.98   
    29. D(H   8,C   1,C   0,C   4)   -180.00 -0.000013    0.02   -179.97   
    30. D(C   3,C   2,C   1,H   8)    180.00 -0.000010    0.02    180.02   
    31. D(H   7,C   2,C   1,C   0)   -180.00  0.000004   -0.01   -180.01   
    32. D(C   3,C   2,C   1,C   0)     -0.00 -0.000005    0.01      0.01   
    33. D(H   7,C   2,C   1,H   8)      0.00 -0.000001    0.00      0.00   
    34. D(H   6,C   3,C   2,H   7)     -0.00 -0.000011    0.02      0.02   
    35. D(H   6,C   3,C   2,C   1)   -180.00 -0.000001    0.00   -180.00   
    36. D(C   4,C   3,C   2,H   7)    180.00  0.000017   -0.03    179.97   
    37. D(C   4,C   3,C   2,C   1)     -0.00  0.000026   -0.04     -0.04   
    38. D(H   5,C   4,C   0,C   1)    179.98  0.000035   -0.07    179.92   
    39. D(C   3,C   4,C   0,H   9)   -180.00 -0.000001    0.00   -180.00   
    40. D(C   3,C   4,C   0,C   1)     -0.00  0.000032   -0.06     -0.06   
    41. D(H   5,C   4,C   3,H   6)      0.01 -0.000010    0.03      0.04   
    42. D(H   5,C   4,C   3,C   2)   -179.98 -0.000038    0.07   -179.91   
    43. D(C   0,C   4,C   3,H   6)    180.00 -0.000008    0.01    180.01   
    44. D(C   0,C   4,C   3,C   2)      0.00 -0.000035    0.06      0.06   
    45. D(H   5,C   4,C   0,H   9)     -0.01  0.000001   -0.01     -0.02   
    ----------------------------------------------------------------------------

         *************************************************************
         *                GEOMETRY OPTIMIZATION CYCLE   2            *
         *************************************************************
---------------------------------
CARTESIAN COORDINATES (ANGSTROEM)
---------------------------------
  C     -5.012765   -9.076436   -7.304374
  C     -5.014203   -8.073724   -6.339092
  C     -3.953875   -7.202493   -6.602464
  C     -3.281431   -7.653733   -7.734544
  C     -3.927707   -8.838022   -8.200318
  H     -3.651015   -9.434254   -9.058138
  H     -2.413618   -7.182326   -8.182337
  H     -3.692369   -6.320554   -6.026422
  H     -5.723516   -7.989332   -5.521807
  H     -5.718050   -9.898207   -7.361384

----------------------------
CARTESIAN COORDINATES (A.U.)
----------------------------
  NO LB      ZA    FRAG     MASS         X           Y           Z
   0 C     6.0000    0    12.011   -9.472752  -17.151978  -13.803266
   1 C     6.0000    0    12.011   -9.475470  -15.257126  -11.979149
   2 C     6.0000    0    12.011   -7.471741  -13.610740  -12.476849
   3 C     6.0000    0    12.011   -6.201007  -14.463458  -14.616170
   4 C     6.0000    0    12.011   -7.422291  -16.701440  -15.496356
   5 H     1.0000    0     1.008   -6.899419  -17.828156  -17.117400
   6 H     1.0000    0     1.008   -4.561076  -13.572629  -15.462375
   7 H     1.0000    0     1.008   -6.977567  -11.944117  -11.388287
   8 H     1.0000    0     1.008  -10.815878  -15.097649  -10.434703
   9 H     1.0000    0     1.008  -10.805549  -18.704900  -13.911000

--------------------------------
INTERNAL COORDINATES (ANGSTROEM)
--------------------------------
 C      0   0   0     0.000000000000     0.00000000     0.00000000
 C      1   0   0     1.391834024117     0.00000000     0.00000000
 C      2   1   0     1.397390648288   108.52185591     0.00000000
 C      3   2   1     1.391905966587   108.52689899     0.00000000
 C      1   2   3     1.427202676964   108.40983164     0.03302006
 H      5   1   2     1.080696967123   126.92613844   179.91677907
 H      4   3   2     1.084363040117   125.56076690   180.00321821
 H      3   2   1     1.085369197080   126.11475359   179.99328157
 H      2   1   3     1.085450626551   125.37170770   179.99225660
 H      1   2   3     1.084428871925   125.57163836   179.97501572

---------------------------
INTERNAL COORDINATES (A.U.)
---------------------------
 C      0   0   0     0.000000000000     0.00000000     0.00000000
 C      1   0   0     2.630185129454     0.00000000     0.00000000
 C      2   1   0     2.640685627366   108.52185591     0.00000000
 C      3   2   1     2.630321081021   108.52689899     0.00000000
 C      1   2   3     2.697022197062   108.40983164     0.03302006
 H      5   1   2     2.042221301622   126.92613844   179.91677907
 H      4   3   2     2.049149175568   125.56076690   180.00321821
 H      3   2   1     2.051050536676   126.11475359   179.99328157
 H      2   1   3     2.051204416075   125.37170770   179.99225660
 H      1   2   3     2.049273579656   125.57163836   179.97501572

------------------------------------------------------------------------------
                   ___                                                        
                  /   \      - P O W E R E D   B Y -                         
                 /     \                                                     
                 |  |  |   _    _      __       _____    __    __             
                 |  |  |  | |  | |    /  \     |  _  \  |  |  /  |          
                  \  \/   | |  | |   /    \    | | | |  |  | /  /          
                 / \  \   | |__| |  /  /\  \   | |_| |  |  |/  /          
                |  |  |   |  __  | /  /__\  \  |    /   |      \           
                |  |  |   | |  | | |   __   |  |    \   |  |\   \          
                \     /   | |  | | |  |  |  |  | |\  \  |  | \   \       
                 \___/    |_|  |_| |__|  |__|  |_| \__\ |__|  \__/        
                                                                              
                      - O R C A' S   B I G   F R I E N D -                    
                                      &                                       
                       - I N T E G R A L  F E E D E R -                       
                                                                              
 v1 FN, 2020, v2 2021                                                         
------------------------------------------------------------------------------


Reading SHARK input file OPT_Ar-2.SHARKINP.tmp ... ok
----------------------
SHARK INTEGRAL PACKAGE
----------------------

Number of atoms                             ...     10
Number of basis functions                   ...     85
Number of shells                            ...     45
Maximum angular momentum                    ...      2
Integral batch strategy                     ... SHARK/LIBINT Hybrid
RI-J (if used) integral strategy            ... SPLIT-RIJ (Revised 2003 algorithm where possible)
Printlevel                                  ...      1
Contraction scheme used                     ... SEGMENTED contraction
Coulomb Range Separation                    ... NOT USED
Exchange Range Separation                   ... NOT USED
Finite Nucleus Model                        ... NOT USED
Auxiliary Coulomb fitting basis             ... AVAILABLE
   # of basis functions in Aux-J            ...    300
   # of shells in Aux-J                     ...    100
   Maximum angular momentum in Aux-J        ...      4
Auxiliary J/K fitting basis                 ... NOT available
Auxiliary Correlation fitting basis         ... NOT available
Auxiliary 'external' fitting basis          ... NOT available
Integral threshold                          ...     2.500000e-11
Primitive cut-off                           ...     2.500000e-12
Primitive pair pre-selection threshold      ...     2.500000e-12

Calculating pre-screening integrals         ... done (  0.1 sec) Dimension = 45
Organizing shell pair data                  ... done (  0.0 sec)
Shell pair information
Total number of shell pairs                 ...      1035
Shell pairs after pre-screening             ...      1010
Total number of primitive shell pairs       ...      3735
Primitive shell pairs kept                  ...      2855
          la=0 lb=0:    440 shell pairs
          la=1 lb=0:    300 shell pairs
          la=1 lb=1:     55 shell pairs
          la=2 lb=0:    150 shell pairs
          la=2 lb=1:     50 shell pairs
          la=2 lb=2:     15 shell pairs

Calculating one electron integrals          ... done (  0.0 sec)
Calculating RI/J V-Matrix + Cholesky decomp.... done (  0.0 sec)
Calculating Nuclear repulsion               ... done (  0.0 sec) ENN=    149.607251377843 Eh

SHARK setup successfully completed in   0.3 seconds

Maximum memory used throughout the entire GTOINT-calculation: 9.7 MB

Diagonalization of the overlap matrix:
Smallest eigenvalue                        ... 1.613e-03
Time for diagonalization                   ...    0.002 sec
Threshold for overlap eigenvalues          ... 1.000e-08
Number of eigenvalues below threshold      ... 0
Time for construction of square roots      ...    0.000 sec
Total time needed                          ...    0.002 sec

-------------------
DFT GRID GENERATION
-------------------

General Integration Accuracy     IntAcc      ... 4.159
Radial Grid Type                 RadialGrid  ... OptM3 with GC (2021)
Angular Grid (max. ang.)         AngularGrid ... 3 (Lebedev-194)
Angular grid pruning method      GridPruning ... 4 (adaptive)
Weight generation scheme         WeightScheme... Becke
Basis function cutoff            BFCut       ... 1.0000e-11
Integration weight cutoff        WCut        ... 1.0000e-14
Angular grids for H and He will be reduced by one unit
Partially contracted basis set               ... off
Rotationally invariant grid construction     ... off

Total number of grid points                  ...    23673
Total number of batches                      ...      376
Average number of points per batch           ...       62
Average number of grid points per atom       ...     2367
Time for grid setup =    0.392 sec

--------------------
COSX GRID GENERATION
--------------------

GRIDX 1
-------
General Integration Accuracy     IntAcc      ... 3.816
Radial Grid Type                 RadialGrid  ... OptM3 with GC (2021)
Angular Grid (max. ang.)         AngularGrid ... 1 (Lebedev-50)
Angular grid pruning method      GridPruning ... 4 (adaptive)
Weight generation scheme         WeightScheme... Becke
Basis function cutoff            BFCut       ... 1.0000e-11
Integration weight cutoff        WCut        ... 1.0000e-14
Angular grids for H and He will be reduced by one unit
Partially contracted basis set               ... on
Rotationally invariant grid construction     ... off

Total number of grid points                  ...     5942
Total number of batches                      ...       95
Average number of points per batch           ...       62
Average number of grid points per atom       ...      594
UseSFitting                                  ... on

GRIDX 2
-------
General Integration Accuracy     IntAcc      ... 4.020
Radial Grid Type                 RadialGrid  ... OptM3 with GC (2021)
Angular Grid (max. ang.)         AngularGrid ... 2 (Lebedev-110)
Angular grid pruning method      GridPruning ... 4 (adaptive)
Weight generation scheme         WeightScheme... Becke
Basis function cutoff            BFCut       ... 1.0000e-11
Integration weight cutoff        WCut        ... 1.0000e-14
Angular grids for H and He will be reduced by one unit
Partially contracted basis set               ... on
Rotationally invariant grid construction     ... off

Total number of grid points                  ...    13042
Total number of batches                      ...      207
Average number of points per batch           ...       63
Average number of grid points per atom       ...     1304
UseSFitting                                  ... on

GRIDX 3
-------
General Integration Accuracy     IntAcc      ... 4.338
Radial Grid Type                 RadialGrid  ... OptM3 with GC (2021)
Angular Grid (max. ang.)         AngularGrid ... 3 (Lebedev-194)
Angular grid pruning method      GridPruning ... 4 (adaptive)
Weight generation scheme         WeightScheme... Becke
Basis function cutoff            BFCut       ... 1.0000e-11
Integration weight cutoff        WCut        ... 1.0000e-14
Angular grids for H and He will be reduced by one unit
Partially contracted basis set               ... on
Rotationally invariant grid construction     ... off

Total number of grid points                  ...    28747
Total number of batches                      ...      455
Average number of points per batch           ...       63
Average number of grid points per atom       ...     2875
UseSFitting                                  ... on

Time for X-Grid setup             =    0.786 sec

--------------
SCF ITERATIONS
--------------
ITER       Energy         Delta-E        Max-DP      RMS-DP      [F,P]     Damp
               ***  Starting incremental Fock matrix formation  ***
  0   -193.0841378579   0.000000000000 0.00499957  0.00029199  0.0171798 0.7000
                      *** Initiating the SOSCF procedure ***
                      *** Re-Reading the Fockian *** 
                      *** Removing any level shift *** 
ITER      Energy       Delta-E        Grad      Rot      Max-DP    RMS-DP
  1   -193.08478536  -0.0006475060  0.001512  0.001512  0.012341  0.000756
               *** Restarting incremental Fock matrix formation ***
  2   -193.08626194  -0.0014765753  0.003824  0.011491  0.008485  0.000423
  3   -193.08623016   0.0000317824  0.003750  0.004518  0.004651  0.000271
  4   -193.08640519  -0.0001750338  0.000240  0.000490  0.000517  0.000040
  5   -193.08640568  -0.0000004871  0.000223  0.000275  0.000239  0.000017
  6   -193.08640640  -0.0000007233  0.000015  0.000053  0.000044  0.000003
  7   -193.08640641  -0.0000000117  0.000008  0.000031  0.000017  0.000001
  8   -193.08640642  -0.0000000037  0.000004  0.000008  0.000005  0.000000
                 **** Energy Check signals convergence ****
              ***Rediagonalizing the Fockian in SOSCF/NRSCF***

               *****************************************************
               *                     SUCCESS                       *
               *           SCF CONVERGED AFTER   9 CYCLES          *
               *****************************************************

Old exchange energy                            =    -11.717096449 Eh
New exchange energy                            =    -11.717103600 Eh
Exchange energy change after final integration =     -0.000007151 Eh
Total energy after final integration           =   -193.086413566 Eh
Final COS-X integration done in                =     4.021 sec
Total Energy       :         -193.08641357 Eh           -5254.14843 eV
  Last Energy change         ...    1.3231e-09  Tolerance :   1.0000e-08
  Last MAX-Density change    ...    1.7764e-15  Tolerance :   1.0000e-07
             **** THE GBW FILE WAS UPDATED (OPT_Ar-2.gbw) ****
             **** DENSITY OPT_Ar-2.scfp WAS UPDATED ****
             **** ENERGY FILE WAS UPDATED (OPT_Ar-2.en.tmp) ****
             **** THE GBW FILE WAS UPDATED (OPT_Ar-2.gbw) ****
             **** DENSITY OPT_Ar-2.scfp WAS UPDATED ****
Total SCF time: 0 days 0 hours 0 min 26 sec 

Maximum memory used throughout the entire SCF-calculation: 52.5 MB


-------------------------------------------------------------------------------
                          DFT DISPERSION CORRECTION                            
                                                                               
                              DFTD3 V3.1  Rev 1                                
                          USING Becke-Johnson damping                          
-------------------------------------------------------------------------------
-------------------------   ----------------
Dispersion correction           -0.004229821
-------------------------   ----------------

------------------   -----------------
gCP correction             0.011691264
------------------   -----------------

-------------------------   --------------------
FINAL SINGLE POINT ENERGY      -193.078952123594
-------------------------   --------------------

------------------------------------------------------------------------------
                         ORCA SCF GRADIENT CALCULATION
------------------------------------------------------------------------------

 ... reading COSX grid (gridx3)
Gradient of the Kohn-Sham DFT energy:
Kohn-Sham wavefunction type      ... RKS
Hartree-Fock exchange scaling    ...    0.420
Number of operators              ...    1
Number of atoms                  ...   10
Basis set dimensions             ...   85
Integral neglect threshold       ... 2.5e-11
Integral primitive cutoff        ... 2.5e-12
SHARK Integral package           ... ON

Nuc. rep. gradient       (SHARK) ... done (  0.0 sec)
HCore & Overlap gradient (SHARK) ... done (  0.1 sec)
RI-J gradient            (SHARK) ... done (  0.6 sec)
COSX-gradient                    ... done (  4.1 sec)
Exchange-correlation gradient    ... done
Dispersion correction            ... done
gCP correction                   ... done

------------------
CARTESIAN GRADIENT
------------------

   1   C   :   -0.011272101    0.006190029    0.017659957
   2   C   :    0.006922997   -0.001175707   -0.008260252
   3   C   :   -0.002266951   -0.008738090   -0.006042038
   4   C   :    0.000734060    0.016183375    0.014701422
   5   C   :    0.006678198   -0.014278803   -0.020512582
   6   H   :   -0.000429730    0.000911973    0.001347420
   7   H   :   -0.000327291    0.000395381    0.000651936
   8   H   :    0.000469655    0.000358304   -0.000189624
   9   H   :   -0.000471537   -0.000520616    0.000090852
  10   H   :   -0.000109614    0.000535432    0.000712663

Difference to translation invariance:
           :   -0.0000723137   -0.0001387218    0.0001597545

Difference to rotation invariance:
           :   -0.0045652839    0.0026584536    0.0005910807

Norm of the cartesian gradient     ...    0.0431952149
RMS gradient                       ...    0.0078863312
MAX gradient                       ...    0.0205125820

-------
TIMINGS
-------

Total SCF gradient time            ...        6.752 sec

One electron gradient       ....       0.133 sec  (  2.0%)
RI-J Coulomb gradient       ....       0.569 sec  (  8.4%)
COSX gradient               ....       4.148 sec  ( 61.4%)
XC gradient                 ....       1.384 sec  ( 20.5%)

Maximum memory used throughout the entire SCFGRAD-calculation: 41.1 MB
------------------------------------------------------------------------------
                         ORCA GEOMETRY RELAXATION STEP
------------------------------------------------------------------------------

Reading the OPT-File                    .... done
Getting information on internals        .... done
Copying old internal coords+grads       .... done
Making the new internal coordinates     .... (new redundants).... done
Validating the new internal coordinates .... (new redundants).... done
Calculating the B-matrix                .... done
Calculating the G,G- and P matrices     .... done
Transforming gradient to internals      .... done
Projecting the internal gradient        .... done
Number of atoms                         ....  10
Number of internal coordinates          ....  45
Current Energy                          ....  -193.078952124 Eh
Current gradient norm                   ....     0.043195215 Eh/bohr
Maximum allowed component of the step   ....  0.300
Current trust radius                    ....  0.300
Updating the Hessian (BFGS)             .... done
Forming the augmented Hessian           .... done
Diagonalizing the augmented Hessian     .... done
Last element of RFO vector              ....  0.996040648
Lowest eigenvalues of augmented Hessian:
 -0.002430563  0.013583750  0.018728849  0.020570923  0.021710136
Length of the computed step             ....  0.089252353
The final length of the internal step   ....  0.089252353
Converting the step to cartesian space:
 Initial RMS(Int)=    0.0133049553
Transforming coordinates:
 Iter   0:  RMS(Cart)=    0.0198744658 RMS(Int)=    1.6221822136
 Iter   1:  RMS(Cart)=    0.0002760839 RMS(Int)=    0.0001722379
 Iter   2:  RMS(Cart)=    0.0000043801 RMS(Int)=    0.0000025613
 Iter   3:  RMS(Cart)=    0.0000000657 RMS(Int)=    0.0000000466
done
Storing new coordinates                 .... done

                                .--------------------.
          ----------------------|Geometry convergence|-------------------------
          Item                value                   Tolerance       Converged
          ---------------------------------------------------------------------
          Energy change      -0.0092987755            0.0000050000      NO
          RMS gradient        0.0041114588            0.0001000000      NO
          MAX gradient        0.0141396352            0.0003000000      NO
          RMS step            0.0133049553            0.0020000000      NO
          MAX step            0.0500142779            0.0040000000      NO
          ........................................................
          Max(Bonds)      0.0265      Max(Angles)    1.66
          Max(Dihed)        0.09      Max(Improp)    0.00
          ---------------------------------------------------------------------

The optimization has not yet converged - more geometry cycles are needed


    ---------------------------------------------------------------------------
                         Redundant Internal Coordinates
                            (Angstroem and degrees)

        Definition                    Value    dE/dq     Step     New-Value
    ----------------------------------------------------------------------------
     1. B(C   1,C   0)                1.3918 -0.008856  0.0110    1.4029   
     2. B(C   2,C   1)                1.3974 -0.006135  0.0086    1.4060   
     3. B(C   3,C   2)                1.3919 -0.008880  0.0111    1.4030   
     4. B(C   4,C   3)                1.4273  0.014099 -0.0264    1.4009   
     5. B(C   4,C   0)                1.4272  0.014140 -0.0265    1.4007   
     6. B(H   5,C   4)                1.0807 -0.001676  0.0031    1.0838   
     7. B(H   6,C   3)                1.0844 -0.000341  0.0008    1.0851   
     8. B(H   7,C   2)                1.0854  0.000308 -0.0005    1.0848   
[...]
Average number of points per batch           ...       62
Average number of grid points per atom       ...     1304
UseSFitting                                  ... on

GRIDX 3
-------
General Integration Accuracy     IntAcc      ... 4.338
Radial Grid Type                 RadialGrid  ... OptM3 with GC (2021)
Angular Grid (max. ang.)         AngularGrid ... 3 (Lebedev-194)
Angular grid pruning method      GridPruning ... 4 (adaptive)
Weight generation scheme         WeightScheme... Becke
Basis function cutoff            BFCut       ... 1.0000e-11
Integration weight cutoff        WCut        ... 1.0000e-14
Angular grids for H and He will be reduced by one unit
Partially contracted basis set               ... on
Rotationally invariant grid construction     ... off

Total number of grid points                  ...    28756
Total number of batches                      ...      455
Average number of points per batch           ...       63
Average number of grid points per atom       ...     2876
UseSFitting                                  ... on

Time for X-Grid setup             =    0.910 sec

--------------
SCF ITERATIONS
--------------
ITER       Energy         Delta-E        Max-DP      RMS-DP      [F,P]     Damp
               ***  Starting incremental Fock matrix formation  ***
                      *** Initiating the SOSCF procedure ***
                      *** Re-Reading the Fockian *** 
                      *** Removing any level shift *** 
ITER      Energy       Delta-E        Grad      Rot      Max-DP    RMS-DP
  0   -193.08756692 -193.0875669248  0.000088  0.000088  0.000093  0.000010
               *** Restarting incremental Fock matrix formation ***
  1   -193.08756715  -0.0000002234  0.000022  0.000035  0.000067  0.000005
  2   -193.08756717  -0.0000000239  0.000016  0.000016  0.000038  0.000003
  3   -193.08756718  -0.0000000038  0.000007  0.000005  0.000009  0.000001
                  ***Gradient check signals convergence***
              ***Rediagonalizing the Fockian in SOSCF/NRSCF***

               *****************************************************
               *                     SUCCESS                       *
               *           SCF CONVERGED AFTER   4 CYCLES          *
               *****************************************************

Old exchange energy                            =    -11.718286826 Eh
New exchange energy                            =    -11.718299874 Eh
Exchange energy change after final integration =     -0.000013048 Eh
Total energy after final integration           =   -193.087580226 Eh
Final COS-X integration done in                =     2.949 sec

----------------
TOTAL SCF ENERGY
----------------

Total Energy       :         -193.08758023 Eh           -5254.18018 eV

Components:
Nuclear Repulsion  :          149.71641149 Eh            4073.99067 eV
Electronic Energy  :         -342.80399172 Eh           -9328.17085 eV
One Electron Energy:         -563.81040669 Eh          -15342.06114 eV
Two Electron Energy:          221.00641497 Eh            6013.89029 eV
Max COSX asymmetry :            0.00000401 Eh               0.00011 eV

Virial components:
Potential Energy   :         -384.69593593 Eh          -10468.10860 eV
Kinetic Energy     :          191.60835570 Eh            5213.92843 eV
Virial Ratio       :            2.00772004


DFT components:
N(Alpha)           :       18.000022909554 electrons
N(Beta)            :       18.000022909554 electrons
N(Total)           :       36.000045819108 electrons
E(X)               :      -15.554381947630 Eh       
E(C)               :       -1.542674213033 Eh       
E(XC)              :      -17.097056160663 Eh       
DFET-embed. en.    :        0.000000000000 Eh       

---------------
SCF CONVERGENCE
---------------

  Last Energy change         ...   -2.4601e-09  Tolerance :   1.0000e-08
  Last MAX-Density change    ...    1.1323e-15  Tolerance :   1.0000e-07
  Last RMS-Density change    ...    4.7000e-17  Tolerance :   5.0000e-09
  Last Orbital Gradient      ...    6.9203e-07  Tolerance :   1.0000e-05
  Last Orbital Rotation      ...    2.0232e-06  Tolerance :   1.0000e-05

             **** THE GBW FILE WAS UPDATED (OPT_Ar-2.gbw) ****
             **** DENSITY OPT_Ar-2.scfp WAS UPDATED ****
             **** ENERGY FILE WAS UPDATED (OPT_Ar-2.en.tmp) ****
             **** THE GBW FILE WAS UPDATED (OPT_Ar-2.gbw) ****
             **** DENSITY OPT_Ar-2.scfp WAS UPDATED ****
----------------
ORBITAL ENERGIES
----------------

  NO   OCC          E(Eh)            E(eV) 
   0   2.0000     -10.194334      -277.4019 
   1   2.0000     -10.194029      -277.3936 
   2   2.0000     -10.194020      -277.3934 
   3   2.0000     -10.193435      -277.3775 
   4   2.0000     -10.193412      -277.3768 
   5   2.0000      -0.713208       -19.4074 
   6   2.0000      -0.540598       -14.7104 
   7   2.0000      -0.540557       -14.7093 
   8   2.0000      -0.372243       -10.1292 
   9   2.0000      -0.372215       -10.1285 
  10   2.0000      -0.354546        -9.6477 
  11   2.0000      -0.209297        -5.6953 
  12   2.0000      -0.209228        -5.6934 
  13   2.0000      -0.189571        -5.1585 
  14   2.0000      -0.189495        -5.1564 
  15   2.0000      -0.179040        -4.8719 
  16   2.0000      -0.007922        -0.2156 
  17   2.0000      -0.007879        -0.2144 
  18   0.0000       0.331693         9.0258 
  19   0.0000       0.331721         9.0266 
  20   0.0000       0.359674         9.7872 
  21   0.0000       0.421941        11.4816 
  22   0.0000       0.422035        11.4842 
  23   0.0000       0.422608        11.4997 
  24   0.0000       0.422630        11.5003 
  25   0.0000       0.478832        13.0297 
  26   0.0000       0.478971        13.0335 
  27   0.0000       0.550841        14.9891 
  28   0.0000       0.550889        14.9905 
  29   0.0000       0.696414        18.9504 
  30   0.0000       0.769240        20.9321 
  31   0.0000       0.815458        22.1897 
  32   0.0000       0.815506        22.1910 
  33   0.0000       0.816635        22.2218 
  34   0.0000       0.860059        23.4034 
  35   0.0000       0.860221        23.4078 
  36   0.0000       0.896387        24.3919 
  37   0.0000       0.896390        24.3920 
  38   0.0000       0.909253        24.7420 
  39   0.0000       0.921889        25.0859 
  40   0.0000       0.921924        25.0868 
  41   0.0000       1.066868        29.0310 
  42   0.0000       1.066935        29.0328 
  43   0.0000       1.119883        30.4736 
  44   0.0000       1.133223        30.8366 
  45   0.0000       1.133406        30.8415 
  46   0.0000       1.202028        32.7088 
  47   0.0000       1.202227        32.7143 
  48   0.0000       1.233180        33.5565 
  49   0.0000       1.356110        36.9016 
  50   0.0000       1.356387        36.9092 
  51   0.0000       1.367939        37.2235 
  52   0.0000       1.367997        37.2251 
  53   0.0000       1.544015        42.0148 
  54   0.0000       1.544156        42.0186 
  55   0.0000       1.655547        45.0497 
  56   0.0000       1.679102        45.6907 
  57   0.0000       1.679177        45.6927 
  58   0.0000       1.851379        50.3786 
  59   0.0000       1.851431        50.3800 
  60   0.0000       1.988396        54.1070 
  61   0.0000       2.141710        58.2789 
  62   0.0000       2.290898        62.3385 
  63   0.0000       2.290993        62.3411 
  64   0.0000       2.329758        63.3960 
  65   0.0000       2.329947        63.4011 
  66   0.0000       2.523433        68.6661 
  67   0.0000       2.523691        68.6731 
  68   0.0000       2.553422        69.4821 
  69   0.0000       2.553517        69.4847 
  70   0.0000       2.610888        71.0459 
  71   0.0000       2.610929        71.0470 
  72   0.0000       2.847379        77.4811 
  73   0.0000       2.876796        78.2816 
  74   0.0000       2.876858        78.2833 
  75   0.0000       2.946232        80.1711 
  76   0.0000       2.946492        80.1781 
  77   0.0000       3.260413        88.7204 
  78   0.0000       3.311212        90.1027 
  79   0.0000       3.311398        90.1077 
  80   0.0000      13.486864       366.9962 
  81   0.0000      13.968098       380.0913 
  82   0.0000      13.968361       380.0984 
  83   0.0000      14.502226       394.6256 
  84   0.0000      14.502472       394.6323 

                    ********************************
                    * MULLIKEN POPULATION ANALYSIS *
                    ********************************

-----------------------
MULLIKEN ATOMIC CHARGES
-----------------------
   0 C :   -0.291597
   1 C :   -0.291640
   2 C :   -0.290999
   3 C :   -0.291540
   4 C :   -0.290953
   5 H :    0.091240
   6 H :    0.091390
   7 H :    0.091258
   8 H :    0.091408
   9 H :    0.091432
Sum of atomic charges:   -1.0000000

--------------------------------
MULLIKEN REDUCED ORBITAL CHARGES
--------------------------------
  0 C s       :     3.190821  s :     3.190821
      pz      :     1.015323  p :     3.059891
      px      :     1.027925
      py      :     1.016643
      dz2     :     0.010676  d :     0.040885
      dxz     :     0.006588
      dyz     :     0.007099
      dx2y2   :     0.005570
      dxy     :     0.010953
  1 C s       :     3.190874  s :     3.190874
      pz      :     1.023478  p :     3.059879
      px      :     1.027701
      py      :     1.008700
      dz2     :     0.006522  d :     0.040887
      dxz     :     0.010804
      dyz     :     0.007281
      dx2y2   :     0.009468
      dxy     :     0.006813
  2 C s       :     3.190676  s :     3.190676
      pz      :     1.018912  p :     3.059440
      px      :     1.022570
      py      :     1.017959
      dz2     :     0.007935  d :     0.040883
      dxz     :     0.006436
      dyz     :     0.010339
      dx2y2   :     0.008506
      dxy     :     0.007666
  3 C s       :     3.190684  s :     3.190684
      pz      :     1.017909  p :     3.059984
      px      :     1.031034
      py      :     1.011041
      dz2     :     0.008788  d :     0.040872
      dxz     :     0.008985
      dyz     :     0.006852
      dx2y2   :     0.007019
      dxy     :     0.009227
  4 C s       :     3.190658  s :     3.190658
      pz      :     1.024317  p :     3.059409
      px      :     1.022662
      py      :     1.012430
      dz2     :     0.006393  d :     0.040885
      dxz     :     0.007613
      dyz     :     0.010508
      dx2y2   :     0.009776
      dxy     :     0.006596
  5 H s       :     0.908760  s :     0.908760
  6 H s       :     0.908610  s :     0.908610
  7 H s       :     0.908742  s :     0.908742
  8 H s       :     0.908592  s :     0.908592
  9 H s       :     0.908568  s :     0.908568


                     *******************************
                     * LOEWDIN POPULATION ANALYSIS *
                     *******************************

----------------------
LOEWDIN ATOMIC CHARGES
----------------------
   0 C :   -0.277586
   1 C :   -0.277566
   2 C :   -0.277510
   3 C :   -0.277779
   4 C :   -0.277502
   5 H :    0.077568
   6 H :    0.077636
   7 H :    0.077568
   8 H :    0.077588
   9 H :    0.077583

-------------------------------
LOEWDIN REDUCED ORBITAL CHARGES
-------------------------------
  0 C s       :     2.889551  s :     2.889551
      pz      :     1.112152  p :     3.295885
      px      :     1.097888
      py      :     1.085846
      dz2     :     0.023613  d :     0.092150
      dxz     :     0.016452
      dyz     :     0.017857
      dx2y2   :     0.013039
      dxy     :     0.021189
  1 C s       :     2.889537  s :     2.889537
      pz      :     1.089007  p :     3.295875
      px      :     1.097244
      py      :     1.109625
      dz2     :     0.014478  d :     0.092153
      dxz     :     0.020734
      dyz     :     0.018279
      dx2y2   :     0.021620
      dxy     :     0.017042
  2 C s       :     2.889532  s :     2.889532
      pz      :     1.100561  p :     3.295832
      px      :     1.112445
      py      :     1.082826
      dz2     :     0.018971  d :     0.092147
      dxz     :     0.015671
      dyz     :     0.021138
      dx2y2   :     0.018060
      dxy     :     0.018307
  3 C s       :     2.889555  s :     2.889555
      pz      :     1.104992  p :     3.296110
      px      :     1.088562
      py      :     1.102556
      dz2     :     0.020650  d :     0.092114
      dxz     :     0.019509
      dyz     :     0.016392
      dx2y2   :     0.015378
      dxy     :     0.020186
  4 C s       :     2.889512  s :     2.889512
      pz      :     1.086530  p :     3.295833
      px      :     1.112079
      py      :     1.097224
      dz2     :     0.013506  d :     0.092157
      dxz     :     0.018035
      dyz     :     0.021419
      dx2y2   :     0.023169
      dxy     :     0.016028
  5 H s       :     0.922432  s :     0.922432
  6 H s       :     0.922364  s :     0.922364
  7 H s       :     0.922432  s :     0.922432
  8 H s       :     0.922412  s :     0.922412
  9 H s       :     0.922417  s :     0.922417


                      *****************************
                      * MAYER POPULATION ANALYSIS *
                      *****************************

  NA   - Mulliken gross atomic population
  ZA   - Total nuclear charge
  QA   - Mulliken gross atomic charge
  VA   - Mayer's total valence
  BVA  - Mayer's bonded valence
  FA   - Mayer's free valence

  ATOM       NA         ZA         QA         VA         BVA        FA
  0 C      6.2916     6.0000    -0.2916     3.8685     3.8685    -0.0000
  1 C      6.2916     6.0000    -0.2916     3.8685     3.8685    -0.0000
  2 C      6.2910     6.0000    -0.2910     3.8685     3.8685    -0.0000
  3 C      6.2915     6.0000    -0.2915     3.8685     3.8685    -0.0000
  4 C      6.2910     6.0000    -0.2910     3.8685     3.8685    -0.0000
  5 H      0.9088     1.0000     0.0912     0.9408     0.9408     0.0000
  6 H      0.9086     1.0000     0.0914     0.9407     0.9407    -0.0000
  7 H      0.9087     1.0000     0.0913     0.9408     0.9408     0.0000
  8 H      0.9086     1.0000     0.0914     0.9408     0.9408     0.0000
  9 H      0.9086     1.0000     0.0914     0.9408     0.9408     0.0000

  Mayer bond orders larger than 0.100000
B(  0-C ,  1-C ) :   1.4351 B(  0-C ,  4-C ) :   1.4353 B(  0-C ,  9-H ) :   0.9403 
B(  1-C ,  2-C ) :   1.4353 B(  1-C ,  8-H ) :   0.9403 B(  2-C ,  3-C ) :   1.4351 
B(  2-C ,  7-H ) :   0.9402 B(  3-C ,  4-C ) :   1.4351 B(  3-C ,  6-H ) :   0.9402 
B(  4-C ,  5-H ) :   0.9402 

-------
TIMINGS
-------

Total SCF time: 0 days 0 hours 0 min 12 sec 

Total time                  ....      12.933 sec
Sum of individual times     ....      12.674 sec  ( 98.0%)

Fock matrix formation       ....      11.533 sec  ( 89.2%)
  Split-RI-J                ....       0.858 sec  (  7.4% of F)
  Chain of spheres X        ....       9.453 sec  ( 82.0% of F)
  XC integration            ....       1.235 sec  ( 10.7% of F)
    Basis function eval.    ....       0.492 sec  ( 39.8% of XC)
    Density eval.           ....       0.271 sec  ( 22.0% of XC)
    XC-Functional eval.     ....       0.205 sec  ( 16.6% of XC)
    XC-Potential eval.      ....       0.195 sec  ( 15.8% of XC)
Diagonalization             ....       0.004 sec  (  0.0%)
Density matrix formation    ....       0.001 sec  (  0.0%)
Population analysis         ....       0.002 sec  (  0.0%)
Initial guess               ....       0.002 sec  (  0.0%)
Orbital Transformation      ....       0.000 sec  (  0.0%)
Orbital Orthonormalization  ....       0.001 sec  (  0.0%)
DIIS solution               ....       0.000 sec  (  0.0%)
SOSCF solution              ....       0.004 sec  (  0.0%)
Grid generation             ....       1.128 sec  (  8.7%)

Maximum memory used throughout the entire SCF-calculation: 52.5 MB


-------------------------------------------------------------------------------
                          DFT DISPERSION CORRECTION                            
                                                                               
                              DFTD3 V3.1  Rev 1                                
                          USING Becke-Johnson damping                          
-------------------------------------------------------------------------------
The PBEh-3c composite method is recognized
Using three-body term ABC
Active option DFTDOPT                   ...         4   

molecular C6(AA) [au] = 1130.724934 


            DFT-D V3
 parameters
 s6 scaling factor         :     1.0000 
 a1 scaling factor         :     0.4860 
 s8 scaling factor         :     0.0000 
 a2 scaling factor         :     4.5000 
 Damping factor alpha9(ATM):    16.0000 
 ad hoc parameters k1-k3   :    16.0000     1.3333    -4.0000 

 Edisp/kcal,au: -2.653740657879  -0.004229004476 
 E6   /kcal   :  -2.656307792 
 E8   /kcal   :  -0.000000000 
 E6(ABC)      :   0.002567134 
 % E8         :   0.000000000 
 % E6(ABC)    :  -0.096736438 

-------------------------   ----------------
Dispersion correction           -0.004229004
-------------------------   ----------------

------------------   -----------------
gCP correction             0.011710263
------------------   -----------------

-------------------------   --------------------
FINAL SINGLE POINT ENERGY      -193.080098968234
-------------------------   --------------------

                                *** OPTIMIZATION RUN DONE ***

                            ***************************************
                            *     ORCA property calculations      *
                            ***************************************

                                    ---------------------
                                    Active property flags
                                    ---------------------
   (+) Dipole Moment


------------------------------------------------------------------------------
                       ORCA ELECTRIC PROPERTIES CALCULATION
------------------------------------------------------------------------------

Dipole Moment Calculation                       ... on
Quadrupole Moment Calculation                   ... off
Polarizability Calculation                      ... off
GBWName                                         ... OPT_Ar-2.gbw
Electron density                                ... OPT_Ar-2.scfp
The origin for moment calculation is the CENTER OF MASS  = (-8.010514, -15.433054 -13.668648)

-------------
DIPOLE MOMENT
-------------
                                X             Y             Z
Electronic contribution:     -0.00113       0.00040      -0.00007
Nuclear contribution   :      0.00129      -0.00089       0.00050
                        -----------------------------------------
Total Dipole Moment    :      0.00016      -0.00050       0.00044
                        -----------------------------------------
Magnitude (a.u.)       :      0.00068
Magnitude (Debye)      :      0.00173



--------------------
Rotational spectrum 
--------------------
 
Rotational constants in cm-1:     0.300862     0.300856     0.150430 
Rotational constants in MHz :  9019.625868  9019.434391  4509.765510 

 Dipole components along the rotational axes: 
x,y,z [a.u.] :    -0.000232     0.000137     0.000627 
x,y,z [Debye]:    -0.000590     0.000348     0.001593 

 

Timings for individual modules:

Sum of individual times         ...      191.308 sec (=   3.188 min)
GTO integral calculation        ...        2.028 sec (=   0.034 min)   1.1 %
SCF iterations                  ...      145.748 sec (=   2.429 min)  76.2 %
SCF Gradient evaluation         ...       43.128 sec (=   0.719 min)  22.5 %
Geometry relaxation             ...        0.404 sec (=   0.007 min)   0.2 %
                             ****ORCA TERMINATED NORMALLY****
TOTAL RUN TIME: 0 days 0 hours 3 minutes 12 seconds 746 msec
