      -----------------------------------------------------------      
     |                   =====================                   |     
     |                           x T B                           |     
     |                   =====================                   |     
     |                         S. Grimme                         |     
     |          Mulliken Center for Theoretical Chemistry        |     
     |                    University of Bonn                     |     
      -----------------------------------------------------------      

   * xtb version 6.5.1 (579679a) compiled by 'ehlert@majestix' on 2022-07-11

   xtb is free software: you can redistribute it and/or modify it under
   the terms of the GNU Lesser General Public License as published by
   the Free Software Foundation, either version 3 of the License, or
   (at your option) any later version.
   
   xtb is distributed in the hope that it will be useful,
   but WITHOUT ANY WARRANTY; without even the implied warranty of
   MERCHANTABILITY or FITNESS FOR A PARTICULAR PURPOSE.  See the
   GNU Lesser General Public License for more details.
   
   Cite this work as:
   * C. Bannwarth, E. Caldeweyher, S. Ehlert, A. Hansen, P. Pracht,
     J. Seibert, S. Spicher, S. Grimme, WIREs Comput. Mol. Sci., 2020, 11,
     e01493. DOI: 10.1002/wcms.1493
   
   for GFN2-xTB:
   * C. Bannwarth, S. Ehlert and S. Grimme., J. Chem. Theory Comput., 2019,
     15, 1652-1671. DOI: 10.1021/acs.jctc.8b01176
   for GFN1-xTB:
   * S. Grimme, C. Bannwarth, P. Shushkov, J. Chem. Theory Comput., 2017,
     13, 1989-2009. DOI: 10.1021/acs.jctc.7b00118
   for GFN0-xTB:
   * P. Pracht, E. Caldeweyher, S. Ehlert, S. Grimme, ChemRxiv, 2019, preprint.
     DOI: 10.26434/chemrxiv.8326202.v1
   for GFN-FF:
   * S. Spicher and S. Grimme, Angew. Chem. Int. Ed., 2020, 59, 15665-15673.
     DOI: 10.1002/anie.202004239
   
   for ALPB and GBSA implicit solvation:
   * S. Ehlert, M. Stahn, S. Spicher, S. Grimme, J. Chem. Theory Comput.,
     2021, 17, 4250-4261. DOI: 10.1021/acs.jctc.1c00471
   
   for DFT-D4:
   * E. Caldeweyher, C. Bannwarth and S. Grimme, J. Chem. Phys., 2017,
     147, 034112. DOI: 10.1063/1.4993215
   * E. Caldeweyher, S. Ehlert, A. Hansen, H. Neugebauer, S. Spicher,
     C. Bannwarth and S. Grimme, J. Chem. Phys., 2019, 150, 154122.
     DOI: 10.1063/1.5090222
   * E. Caldeweyher, J.-M. Mewes, S. Ehlert and S. Grimme, Phys. Chem. Chem. Phys.
     2020, 22, 8499-8512. DOI: 10.1039/D0CP00502A
   
   for sTDA-xTB:
   * S. Grimme and C. Bannwarth, J. Chem. Phys., 2016, 145, 054103.
     DOI: 10.1063/1.4959605
   
   in the mass-spec context:
   * V. Asgeirsson, C. Bauer and S. Grimme, Chem. Sci., 2017, 8, 4879.
     DOI: 10.1039/c7sc00601b
   * J. Koopman and S. Grimme, ACS Omega 2019, 4, 12, 15120-15133.
     DOI: 10.1021/acsomega.9b02011
   
   for metadynamics refer to:
   * S. Grimme, J. Chem. Theory Comput., 2019, 155, 2847-2862
     DOI: 10.1021/acs.jctc.9b00143
   
   for SPH calculations refer to:
   * S. Spicher and S. Grimme, J. Chem. Theory Comput., 2021, 17, 1701-1714
     DOI: 10.1021/acs.jctc.0c01306
   
   with help from (in alphabetical order)
   P. Atkinson, C. Bannwarth, F. Bohle, G. Brandenburg, E. Caldeweyher
   M. Checinski, S. Dohm, S. Ehlert, S. Ehrlich, I. Gerasimov, C. Hölzer
   A. Katbashev, J. Koopman, C. Lavigne, S. Lehtola, F. März, M. Müller,
   F. Musil, H. Neugebauer, J. Pisarek, C. Plett, P. Pracht, F. Pultar,
   J. Seibert, P. Shushkov, S. Spicher, M. Stahn, M. Steiner, T. Strunk,
   J. Stückrath, T. Rose, and J. Unsleber
   
 * started run on 2023/06/22 at 18:14:23.983     

           -------------------------------------------------
          |                Calculation Setup                |
           -------------------------------------------------

          program call               : xtb start.xyz --opt
          hostname                   : c04
          coordinate file            : start.xyz
          omp threads                :                     2

   ID    Z sym.   atoms
    1    6 C      1-3, 5, 6
    2    8 O      4
    3    1 H      7-14

           -------------------------------------------------
          |                 G F N 2 - x T B                 |
           -------------------------------------------------

        Reference                      10.1021/acs.jctc.8b01176
      * Hamiltonian:
        H0-scaling (s, p, d)           1.850000    2.230000    2.230000
        zeta-weighting                 0.500000
      * Dispersion:
        s8                             2.700000
        a1                             0.520000
        a2                             5.000000
        s9                             5.000000
      * Repulsion:
        kExp                           1.500000    1.000000
        rExp                           1.000000
      * Coulomb:
        alpha                          2.000000
        third order                    shell-resolved
        anisotropic                    true
        a3                             3.000000
        a5                             4.000000
        cn-shift                       1.200000
        cn-exp                         4.000000
        max-rad                        5.000000


          ...................................................
          :                      SETUP                      :
          :.................................................:
          :  # basis functions                  32          :
          :  # atomic orbitals                  32          :
          :  # shells                           20          :
          :  # electrons                        34          :
          :  max. iterations                   250          :
          :  Hamiltonian                  GFN2-xTB          :
          :  restarted?                      false          :
          :  GBSA solvation                  false          :
          :  PC potential                    false          :
          :  electronic temp.          300.0000000     K    :
          :  accuracy                    1.0000000          :
          :  -> integral cutoff          0.2500000E+02      :
          :  -> integral neglect         0.1000000E-07      :
          :  -> SCF convergence          0.1000000E-05 Eh   :
          :  -> wf. convergence          0.1000000E-03 e    :
          :  Broyden damping             0.4000000          :
          ...................................................

 iter      E             dE          RMSdq      gap      omega  full diag
   1    -18.9865308 -0.189865E+02  0.449E+00    4.60       0.0  T
   2    -19.0192607 -0.327299E-01  0.274E+00    4.15       1.0  T
   3    -19.0102493  0.901135E-02  0.160E+00    4.22       1.0  T
   4    -19.0284925 -0.182432E-01  0.515E-01    4.09       1.0  T
   5    -19.0297485 -0.125600E-02  0.892E-02    4.16       1.0  T
   6    -19.0297576 -0.903525E-05  0.663E-02    4.16       1.0  T
   7    -19.0297807 -0.231836E-04  0.292E-02    4.16       1.0  T
   8    -19.0297837 -0.297515E-05  0.531E-03    4.16       5.0  T
   9    -19.0297838 -0.605632E-07  0.187E-03    4.16      14.3  T
  10    -19.0297838 -0.424921E-08  0.606E-04    4.16      44.1  T
  11    -19.0297838 -0.507924E-09  0.160E-04    4.16     167.4  T

   *** convergence criteria satisfied after 11 iterations ***

         #    Occupation            Energy/Eh            Energy/eV
      -------------------------------------------------------------
         1        2.0000           -0.7076135             -19.2551
       ...           ...                  ...                  ...
        11        2.0000           -0.4864759             -13.2377
        12        2.0000           -0.4617339             -12.5644
        13        2.0000           -0.4515869             -12.2883
        14        2.0000           -0.4435629             -12.0700
        15        2.0000           -0.4275567             -11.6344
        16        2.0000           -0.4123591             -11.2209
        17        2.0000           -0.3737708             -10.1708 (HOMO)
        18                         -0.2207470              -6.0068 (LUMO)
        19                         -0.1914460              -5.2095
        20                          0.0215330               0.5859
        21                          0.0952246               2.5912
        22                          0.1144656               3.1148
       ...                                ...                  ...
        32                          0.5710580              15.5393
      -------------------------------------------------------------
                  HL-Gap            0.1530237 Eh            4.1640 eV
             Fermi-level           -0.2972589 Eh           -8.0888 eV

 SCC (total)                   0 d,  0 h,  0 min,  0.007 sec
 SCC setup                      ...        0 min,  0.000 sec (  3.399%)
 Dispersion                     ...        0 min,  0.000 sec (  1.554%)
 classical contributions        ...        0 min,  0.000 sec (  0.279%)
 integral evaluation            ...        0 min,  0.001 sec (  9.815%)
 iterations                     ...        0 min,  0.004 sec ( 58.030%)
 molecular gradient             ...        0 min,  0.002 sec ( 24.321%)
 printout                       ...        0 min,  0.000 sec (  1.890%)

         :::::::::::::::::::::::::::::::::::::::::::::::::::::
         ::                     SUMMARY                     ::
         :::::::::::::::::::::::::::::::::::::::::::::::::::::
         :: total energy             -18.767612317496 Eh    ::
         :: gradient norm              0.079269014925 Eh/a0 ::
         :: HOMO-LUMO gap              4.163987426841 eV    ::
         ::.................................................::
         :: SCC energy               -19.029783788183 Eh    ::
         :: -> isotropic ES            0.015811446355 Eh    ::
         :: -> anisotropic ES          0.003959475643 Eh    ::
         :: -> anisotropic XC          0.009918770183 Eh    ::
         :: -> dispersion             -0.008132645184 Eh    ::
         :: repulsion energy           0.262150797517 Eh    ::
         :: add. restraining           0.000000000000 Eh    ::
         :: total charge              -0.000000000000 e     ::
         :::::::::::::::::::::::::::::::::::::::::::::::::::::

      ----------------------------------------------------------- 
     |                   =====================                   |
     |                        A N C O P T                        |
     |                   =====================                   |
     |               Approximate Normal Coordinate               |
     |                Rational Function Optimizer                |
      ----------------------------------------------------------- 

          ...................................................
          :                      SETUP                      :
          :.................................................:
          :   optimization level            normal          :
          :   max. optcycles                   200          :
          :   ANC micro-cycles                  20          :
          :   degrees of freedom                36          :
          :.................................................:
          :   RF solver                   davidson          :
          :   write xtbopt.log                true          :
          :   linear?                        false          :
          :   energy convergence         0.5000000E-05 Eh   :
          :   grad. convergence          0.1000000E-02 Eh/α :
          :   maximium RF displ.         1.0000000          :
          :   Hlow (freq-cutoff)         0.1000000E-01      :
          :   Hmax (freq-cutoff)         5.0000000          :
          :   S6 in model hess.         20.0000000          :
          ...................................................

generating ANC from model Hessian ...
Using Lindh-Hessian (1995)
 Shifting diagonal of input Hessian by   8.399486458650499E-003
 Lowest  eigenvalues of input Hessian
    0.000000    0.000000    0.000000    0.000000    0.000000    0.000000
    0.010000    0.012326    0.013476    0.020648    0.021213    0.027424
    0.035475    0.043461    0.053490    0.064396    0.073581    0.075104
 Highest eigenvalues
    1.183312    1.362634    1.495065    1.776660    1.858346    2.032680
 

........................................................................
.............................. CYCLE    1 ..............................
........................................................................
   1    -19.0297838 -0.190298E+02  0.471E-05    4.16       0.0  T
   2    -19.0297838 -0.600409E-11  0.321E-05    4.16     831.6  T
   3    -19.0297838 -0.730438E-11  0.170E-05    4.16    1574.3  T
     SCC iter.                  ...        0 min,  0.001 sec
     gradient                   ...        0 min,  0.001 sec
 * total energy  :   -18.7676123 Eh     change       -0.2957634E-10 Eh
   gradient norm :     0.0792688 Eh/α   predicted     0.0000000E+00 (-100.00%)
   displ. norm   :     0.2052964 α      lambda       -0.9492762E-02
   maximum displ.:     0.1008913 α      in ANC's #13, #23, #15, ...

........................................................................
.............................. CYCLE    2 ..............................
........................................................................
   1    -19.0500576 -0.190501E+02  0.275E-01    4.30       0.0  T
   2    -19.0501230 -0.654173E-04  0.165E-01    4.30       1.0  T
   3    -19.0500909  0.321340E-04  0.746E-02    4.31       1.0  T
   4    -19.0501262 -0.353656E-04  0.278E-02    4.30       1.0  T
   5    -19.0501343 -0.806736E-05  0.553E-03    4.30       4.8  T
   6    -19.0501343 -0.928810E-08  0.333E-03    4.30       8.0  T
   7    -19.0501344 -0.417043E-07  0.153E-03    4.30      17.5  T
   8    -19.0501344 -0.137435E-07  0.403E-04    4.30      66.3  T
   9    -19.0501344 -0.270077E-09  0.151E-04    4.30     177.0  T
     SCC iter.                  ...        0 min,  0.002 sec
     gradient                   ...        0 min,  0.001 sec
 * total energy  :   -18.7741241 Eh     change       -0.6511768E-02 Eh
   gradient norm :     0.0344224 Eh/α   predicted    -0.4946426E-02 ( -24.04%)
   displ. norm   :     0.2004074 α      lambda       -0.3144983E-02
   maximum displ.:     0.0945660 α      in ANC's #4, #10, #13, ...

........................................................................
.............................. CYCLE    3 ..............................
........................................................................
   1    -19.0582679 -0.190583E+02  0.222E-01    4.38       0.0  T
   2    -19.0582920 -0.241585E-04  0.132E-01    4.37       1.0  T
   3    -19.0582911  0.897310E-06  0.286E-02    4.38       1.0  T
   4    -19.0582936 -0.243672E-05  0.835E-03    4.37       3.2  T
   5    -19.0582941 -0.580793E-06  0.391E-03    4.38       6.8  T
   6    -19.0582942 -0.478538E-07  0.118E-03    4.37      22.6  T
   7    -19.0582942 -0.114689E-08  0.319E-04    4.37      83.7  T
   8    -19.0582942  0.312319E-10  0.178E-04    4.37     150.6  T
     SCC iter.                  ...        0 min,  0.002 sec
     gradient                   ...        0 min,  0.001 sec
 * total energy  :   -18.7756641 Eh     change       -0.1540033E-02 Eh
   gradient norm :     0.0072349 Eh/α   predicted    -0.1635644E-02 (   6.21%)
   displ. norm   :     0.1099511 α      lambda       -0.4146907E-03
   maximum displ.:     0.0537067 α      in ANC's #5, #1, #6, ...

........................................................................
.............................. CYCLE    4 ..............................
........................................................................
   1    -19.0572879 -0.190573E+02  0.112E-01    4.37       0.0  T
   2    -19.0572886 -0.712381E-06  0.668E-02    4.37       1.0  T
   3    -19.0572881  0.466429E-06  0.827E-03    4.37       3.2  T
   4    -19.0572888 -0.719910E-06  0.271E-03    4.37       9.9  T
   5    -19.0572889 -0.358748E-07  0.119E-03    4.37      22.4  T
   6    -19.0572889 -0.106245E-08  0.387E-04    4.37      69.0  T
   7    -19.0572889 -0.102989E-08  0.170E-04    4.37     157.4  T
     SCC iter.                  ...        0 min,  0.002 sec
     gradient                   ...        0 min,  0.001 sec
 * total energy  :   -18.7758269 Eh     change       -0.1627726E-03 Eh
   gradient norm :     0.0054714 Eh/α   predicted    -0.2098508E-03 (  28.92%)
   displ. norm   :     0.0601725 α      lambda       -0.1560981E-03
   maximum displ.:     0.0346544 α      in ANC's #1, #10, #5, ...

........................................................................
.............................. CYCLE    5 ..............................
........................................................................
   1    -19.0565086 -0.190565E+02  0.665E-02    4.37       0.0  T
   2    -19.0565088 -0.167194E-06  0.395E-02    4.37       1.0  T
   3    -19.0565081  0.682972E-06  0.799E-03    4.37       3.3  T
   4    -19.0565089 -0.790394E-06  0.113E-03    4.37      23.6  T
   5    -19.0565089 -0.327531E-08  0.503E-04    4.37      53.2  T
   6    -19.0565089 -0.932836E-10  0.133E-04    4.37     201.5  T
     SCC iter.                  ...        0 min,  0.002 sec
     gradient                   ...        0 min,  0.001 sec
 * total energy  :   -18.7759398 Eh     change       -0.1129370E-03 Eh
   gradient norm :     0.0023145 Eh/α   predicted    -0.7833028E-04 ( -30.64%)
   displ. norm   :     0.1249492 α      lambda       -0.1278906E-03
   maximum displ.:     0.0757356 α      in ANC's #1, #3, #5, ...

........................................................................
.............................. CYCLE    6 ..............................
........................................................................
   1    -19.0559209 -0.190559E+02  0.122E-01    4.37       0.0  T
   2    -19.0559211 -0.266758E-06  0.723E-02    4.37       1.0  T
   3    -19.0559200  0.115388E-05  0.105E-02    4.37       2.5  T
   4    -19.0559214 -0.136725E-05  0.149E-03    4.37      17.9  T
   5    -19.0559214 -0.143494E-08  0.477E-04    4.37      56.0  T
   6    -19.0559214 -0.113417E-09  0.292E-04    4.37      91.5  T
     SCC iter.                  ...        0 min,  0.002 sec
     gradient                   ...        0 min,  0.001 sec
 * total energy  :   -18.7760324 Eh     change       -0.9261509E-04 Eh
   gradient norm :     0.0030018 Eh/α   predicted    -0.6494194E-04 ( -29.88%)
   displ. norm   :     0.1888252 α      lambda       -0.1267164E-03
   maximum displ.:     0.1142836 α      in ANC's #3, #1, #5, ...

........................................................................
.............................. CYCLE    7 ..............................
........................................................................
   1    -19.0553546 -0.190554E+02  0.179E-01    4.38       0.0  T
   2    -19.0553550 -0.418477E-06  0.105E-01    4.38       1.0  T
   3    -19.0553550  0.335576E-07  0.495E-03    4.38       5.4  T
   4    -19.0553552 -0.250125E-06  0.186E-03    4.38      14.4  T
   5    -19.0553552 -0.640350E-08  0.568E-04    4.38      47.1  T
   6    -19.0553552 -0.590823E-09  0.244E-04    4.38     109.4  T
     SCC iter.                  ...        0 min,  0.002 sec
     gradient                   ...        0 min,  0.001 sec
 * total energy  :   -18.7761318 Eh     change       -0.9937671E-04 Eh
   gradient norm :     0.0053144 Eh/α   predicted    -0.6561781E-04 ( -33.97%)
   displ. norm   :     0.2971183 α      lambda       -0.1870793E-03
   maximum displ.:     0.2012717 α      in ANC's #3, #1, #5, ...

........................................................................
.............................. CYCLE    8 ..............................
........................................................................
   1    -19.0542922 -0.190543E+02  0.278E-01    4.40       0.0  T
   2    -19.0542933 -0.111592E-05  0.164E-01    4.40       1.0  T
   3    -19.0542935 -0.163243E-06  0.627E-03    4.40       4.3  T
   4    -19.0542938 -0.335387E-06  0.283E-03    4.41       9.4  T
   5    -19.0542939 -0.268213E-07  0.126E-03    4.41      21.2  T
   6    -19.0542939 -0.335476E-08  0.272E-04    4.41      98.3  T
   7    -19.0542939 -0.102172E-09  0.192E-04    4.41     139.2  T
     SCC iter.                  ...        0 min,  0.002 sec
     gradient                   ...        0 min,  0.001 sec
 * total energy  :   -18.7762660 Eh     change       -0.1341648E-03 Eh
   gradient norm :     0.0080804 Eh/α   predicted    -0.1017942E-03 ( -24.13%)
   displ. norm   :     0.2537718 α      lambda       -0.2023187E-03
   maximum displ.:     0.1756538 α      in ANC's #3, #1, #6, ...

........................................................................
.............................. CYCLE    9 ..............................
........................................................................
   1    -19.0546984 -0.190547E+02  0.227E-01    4.42       0.0  T
   2    -19.0546994 -0.102011E-05  0.134E-01    4.43       1.0  T
   3    -19.0546969  0.249302E-05  0.156E-02    4.43       1.7  T
   4    -19.0547000 -0.307439E-05  0.216E-03    4.44      12.4  T
   5    -19.0547000 -0.131470E-07  0.109E-03    4.43      24.6  T
   6    -19.0547000 -0.170758E-09  0.328E-04    4.43      81.5  T
   7    -19.0547000 -0.402757E-09  0.181E-04    4.43     147.5  T
     SCC iter.                  ...        0 min,  0.002 sec
     gradient                   ...        0 min,  0.001 sec
 * total energy  :   -18.7764221 Eh     change       -0.1561245E-03 Eh
   gradient norm :     0.0082832 Eh/α   predicted    -0.1076721E-03 ( -31.03%)
   displ. norm   :     0.2838983 α      lambda       -0.3780295E-03
   maximum displ.:     0.1879597 α      in ANC's #3, #1, #6, ...

........................................................................
.............................. CYCLE   10 ..............................
........................................................................
   1    -19.0580159 -0.190580E+02  0.242E-01    4.47       0.0  T
   2    -19.0580181 -0.220836E-05  0.143E-01    4.49       1.0  T
   3    -19.0580098  0.824746E-05  0.273E-02    4.49       1.0  T
   4    -19.0580193 -0.946518E-05  0.310E-03    4.49       8.6  T
   5    -19.0580194 -0.506966E-07  0.145E-03    4.49      18.4  T
   6    -19.0580194  0.957311E-09  0.805E-04    4.49      33.2  T
   7    -19.0580194 -0.308131E-08  0.315E-04    4.49      85.0  T
     SCC iter.                  ...        0 min,  0.002 sec
     gradient                   ...        0 min,  0.001 sec
 * total energy  :   -18.7766815 Eh     change       -0.2593912E-03 Eh
   gradient norm :     0.0059597 Eh/α   predicted    -0.2042470E-03 ( -21.26%)
   displ. norm   :     0.4357595 α      lambda       -0.3084278E-03
   maximum displ.:     0.2906598 α      in ANC's #3, #1, #6, ...

........................................................................
.............................. CYCLE   11 ..............................
........................................................................
   1    -19.0540501 -0.190541E+02  0.369E-01    4.49       0.0  T
   2    -19.0540538 -0.376595E-05  0.218E-01    4.50       1.0  T
   3    -19.0540409  0.129866E-04  0.348E-02    4.50       1.0  T
   4    -19.0540561 -0.152147E-04  0.429E-03    4.50       6.2  T
   5    -19.0540561 -0.837903E-07  0.218E-03    4.50      12.3  T
   6    -19.0540561  0.753790E-08  0.113E-03    4.50      23.8  T
   7    -19.0540562 -0.121459E-07  0.210E-04    4.50     127.4  T
   8    -19.0540562 -0.172676E-09  0.618E-05    4.50     432.8  T
     SCC iter.                  ...        0 min,  0.002 sec
     gradient                   ...        0 min,  0.001 sec
 * total energy  :   -18.7768294 Eh     change       -0.1478985E-03 Eh
   gradient norm :     0.0125915 Eh/α   predicted    -0.1834909E-03 (  24.07%)
   displ. norm   :     0.1882135 α      lambda       -0.5374681E-03
   maximum displ.:     0.1154192 α      in ANC's #1, #3, #2, ...

........................................................................
.............................. CYCLE   12 ..............................
........................................................................
   1    -19.0577191 -0.190577E+02  0.166E-01    4.54       0.0  T
   2    -19.0577207 -0.157302E-05  0.981E-02    4.55       1.0  T
   3    -19.0577061  0.145948E-04  0.374E-02    4.55       1.0  T
   4    -19.0577226 -0.164538E-04  0.313E-03    4.55       8.5  T
   5    -19.0577226 -0.216605E-07  0.188E-03    4.55      14.2  T
   6    -19.0577226  0.104050E-08  0.112E-03    4.55      23.8  T
   7    -19.0577226 -0.867765E-08  0.202E-04    4.55     132.5  T
   8    -19.0577226 -0.163539E-09  0.762E-05    4.55     350.6  T
     SCC iter.                  ...        0 min,  0.003 sec
     gradient                   ...        0 min,  0.001 sec
 * total energy  :   -18.7771357 Eh     change       -0.3062703E-03 Eh
   gradient norm :     0.0083739 Eh/α   predicted    -0.2782565E-03 (  -9.15%)
   displ. norm   :     0.3869818 α      lambda       -0.3483393E-03
   maximum displ.:     0.2304646 α      in ANC's #1, #3, #2, ...

........................................................................
.............................. CYCLE   13 ..............................
........................................................................
   1    -19.0551244 -0.190551E+02  0.319E-01    4.55       0.0  T
   2    -19.0551272 -0.276686E-05  0.188E-01    4.55       1.0  T
   3    -19.0551155  0.117617E-04  0.329E-02    4.55       1.0  T
   4    -19.0551291 -0.136916E-04  0.411E-03    4.55       6.5  T
   5    -19.0551292 -0.493210E-07  0.211E-03    4.55      12.7  T
   6    -19.0551292  0.520423E-08  0.123E-03    4.55      21.8  T
   7    -19.0551292 -0.123682E-07  0.247E-04    4.55     108.4  T
   8    -19.0551292 -0.205301E-09  0.860E-05    4.55     310.8  T
     SCC iter.                  ...        0 min,  0.003 sec
     gradient                   ...        0 min,  0.001 sec
 * total energy  :   -18.7773584 Eh     change       -0.2227514E-03 Eh
   gradient norm :     0.0108238 Eh/α   predicted    -0.2002481E-03 ( -10.10%)
   displ. norm   :     0.1759309 α      lambda       -0.2822614E-03
   maximum displ.:     0.1036869 α      in ANC's #2, #1, #3, ...

........................................................................
.............................. CYCLE   14 ..............................
........................................................................
   1    -19.0573926 -0.190574E+02  0.152E-01    4.58       0.0  T
   2    -19.0573939 -0.131752E-05  0.903E-02    4.57       1.0  T
   3    -19.0573876  0.633303E-05  0.245E-02    4.57       1.1  T
   4    -19.0573948 -0.721768E-05  0.278E-03    4.57       9.6  T
   5    -19.0573948 -0.275914E-07  0.146E-03    4.57      18.3  T
   6    -19.0573948 -0.130656E-08  0.909E-04    4.57      29.4  T
   7    -19.0573948 -0.496141E-08  0.308E-04    4.57      86.7  T
     SCC iter.                  ...        0 min,  0.002 sec
     gradient                   ...        0 min,  0.001 sec
 * total energy  :   -18.7775423 Eh     change       -0.1839081E-03 Eh
   gradient norm :     0.0061418 Eh/α   predicted    -0.1455003E-03 ( -20.88%)
   displ. norm   :     0.3794250 α      lambda       -0.2638267E-03
   maximum displ.:     0.2266008 α      in ANC's #1, #3, #2, ...

........................................................................
.............................. CYCLE   15 ..............................
........................................................................
   1    -19.0542321 -0.190542E+02  0.310E-01    4.54       0.0  T
   2    -19.0542338 -0.175433E-05  0.182E-01    4.54       1.0  T
   3    -19.0542303  0.354264E-05  0.199E-02    4.54       1.3  T
   4    -19.0542350 -0.470456E-05  0.364E-03    4.54       7.4  T
   5    -19.0542350 -0.673375E-08  0.175E-03    4.54      15.2  T
   6    -19.0542350 -0.219227E-08  0.851E-04    4.54      31.4  T
   7    -19.0542350 -0.719081E-08  0.200E-04    4.54     133.5  T
     SCC iter.                  ...        0 min,  0.002 sec
     gradient                   ...        0 min,  0.001 sec
 * total energy  :   -18.7776059 Eh     change       -0.6353100E-04 Eh
   gradient norm :     0.0116642 Eh/α   predicted    -0.1509026E-03 ( 137.53%)
   displ. norm   :     0.0838553 α      lambda       -0.3222537E-03
   maximum displ.:     0.0514420 α      in ANC's #3, #1, #6, ...

........................................................................
.............................. CYCLE   16 ..............................
........................................................................
   1    -19.0591917 -0.190592E+02  0.915E-02    4.57       0.0  T
   2    -19.0591929 -0.129511E-05  0.552E-02    4.56       1.0  T
   3    -19.0591845  0.842919E-05  0.320E-02    4.56       1.0  T
   4    -19.0591950 -0.105120E-04  0.182E-03    4.56      14.7  T
   5    -19.0591950 -0.114450E-07  0.978E-04    4.56      27.3  T
   6    -19.0591950  0.106994E-08  0.492E-04    4.56      54.3  T
     SCC iter.                  ...        0 min,  0.002 sec
     gradient                   ...        0 min,  0.001 sec
 * total energy  :   -18.7777129 Eh     change       -0.1070419E-03 Eh
   gradient norm :     0.0065911 Eh/α   predicted    -0.1622584E-03 (  51.58%)
   displ. norm   :     0.0977640 α      lambda       -0.1366315E-03
   maximum displ.:     0.0651577 α      in ANC's #3, #1, #2, ...

........................................................................
.............................. CYCLE   17 ..............................
........................................................................
   1    -19.0588243 -0.190588E+02  0.889E-02    4.59       0.0  T
   2    -19.0588248 -0.491902E-06  0.525E-02    4.59       1.0  T
   3    -19.0588234  0.143183E-05  0.115E-02    4.59       2.3  T
   4    -19.0588250 -0.164976E-05  0.161E-03    4.59      16.7  T
   5    -19.0588250 -0.116845E-07  0.728E-04    4.59      36.7  T
   6    -19.0588250  0.142666E-09  0.408E-04    4.59      65.5  T
     SCC iter.                  ...        0 min,  0.002 sec
     gradient                   ...        0 min,  0.001 sec
 * total energy  :   -18.7777786 Eh     change       -0.6566290E-04 Eh
   gradient norm :     0.0054252 Eh/α   predicted    -0.6896980E-04 (   5.04%)
   displ. norm   :     0.1909653 α      lambda       -0.1303443E-03
   maximum displ.:     0.1043271 α      in ANC's #1, #3, #2, ...

........................................................................
.............................. CYCLE   18 ..............................
........................................................................
   1    -19.0563209 -0.190563E+02  0.166E-01    4.54       0.0  T
   2    -19.0563222 -0.132229E-05  0.977E-02    4.55       1.0  T
   3    -19.0563204  0.182689E-05  0.138E-02    4.55       1.9  T
   4    -19.0563226 -0.216432E-05  0.294E-03    4.55       9.1  T
   5    -19.0563227 -0.788030E-07  0.112E-03    4.55      23.8  T
   6    -19.0563227 -0.145917E-09  0.548E-04    4.55      48.7  T
   7    -19.0563227 -0.172187E-08  0.254E-04    4.55     105.3  T
     SCC iter.                  ...        0 min,  0.002 sec
     gradient                   ...        0 min,  0.001 sec
 * total energy  :   -18.7777869 Eh     change       -0.8305298E-05 Eh
   gradient norm :     0.0094988 Eh/α   predicted    -0.6754988E-04 ( 713.33%)
   displ. norm   :     0.0284457 α      lambda       -0.1093487E-03
   maximum displ.:     0.0168578 α      in ANC's #1, #9, #8, ...

........................................................................
.............................. CYCLE   19 ..............................
........................................................................
   1    -19.0580785 -0.190581E+02  0.356E-02    4.58       0.0  T
   2    -19.0580789 -0.392997E-06  0.223E-02    4.57       1.2  T
   3    -19.0580778  0.108826E-05  0.140E-02    4.57       1.9  T
   4    -19.0580795 -0.167454E-05  0.990E-04    4.57      27.0  T
   5    -19.0580795 -0.503994E-08  0.469E-04    4.57      57.0  T
   6    -19.0580795  0.215259E-10  0.269E-04    4.57      99.4  T
     SCC iter.                  ...        0 min,  0.002 sec
     gradient                   ...        0 min,  0.001 sec
 * total energy  :   -18.7778513 Eh     change       -0.6442847E-04 Eh
   gradient norm :     0.0027370 Eh/α   predicted    -0.5471853E-04 ( -15.07%)
   displ. norm   :     0.0704387 α      lambda       -0.3081163E-04
   maximum displ.:     0.0442494 α      in ANC's #3, #1, #2, ...

........................................................................
.............................. CYCLE   20 ..............................
........................................................................
   1    -19.0584460 -0.190584E+02  0.662E-02    4.59       0.0  T
   2    -19.0584461 -0.114213E-06  0.391E-02    4.59       1.0  T
   3    -19.0584453  0.854060E-06  0.874E-03    4.59       3.1  T
   4    -19.0584462 -0.965549E-06  0.708E-04    4.59      37.7  T
   5    -19.0584462 -0.112659E-08  0.309E-04    4.59      86.5  T
     SCC iter.                  ...        0 min,  0.002 sec
     gradient                   ...        0 min,  0.001 sec
 * total energy  :   -18.7778735 Eh     change       -0.2222560E-04 Eh
   gradient norm :     0.0025573 Eh/α   predicted    -0.1548033E-04 ( -30.35%)
   displ. norm   :     0.1745324 α      lambda       -0.7517720E-04
   maximum displ.:     0.1015648 α      in ANC's #3, #1, #6, ...
 * RMSD in coord.:     0.8416249 α      energy gain  -0.1026121E-01 Eh

generating ANC from model Hessian ...
Using Lindh-Hessian (1995)
 Shifting diagonal of input Hessian by   8.083877176613918E-003
 Lowest  eigenvalues of input Hessian
    0.000000    0.000000    0.000000    0.000000    0.000000    0.000000
    0.010000    0.012309    0.013234    0.021197    0.023803    0.024786
    0.042850    0.045016    0.057401    0.064327    0.075382    0.078705
 Highest eigenvalues
    1.207593    1.362595    1.542810    1.758124    1.964301    2.134372
 

........................................................................
.............................. CYCLE   21 ..............................
........................................................................
   1    -19.0599177 -0.190599E+02  0.167E-01    4.60       0.0  T
   2    -19.0599186 -0.911285E-06  0.982E-02    4.60       1.0  T
   3    -19.0599124  0.621552E-05  0.240E-02    4.61       1.1  T
   4    -19.0599194 -0.700738E-05  0.173E-03    4.60      15.5  T
   5    -19.0599194 -0.697612E-08  0.917E-04    4.60      29.1  T
   6    -19.0599194  0.399833E-09  0.413E-04    4.60      64.7  T
     SCC iter.                  ...        0 min,  0.002 sec
     gradient                   ...        0 min,  0.001 sec
 * total energy  :   -18.7778853 Eh     change       -0.1174692E-04 Eh
   gradient norm :     0.0052134 Eh/α   predicted     0.0000000E+00 (-100.00%)
   displ. norm   :     0.0456041 α      lambda       -0.6969451E-04
   maximum displ.:     0.0261815 α      in ANC's #2, #4, #3, ...

........................................................................
.............................. CYCLE   22 ..............................
........................................................................
   1    -19.0593221 -0.190593E+02  0.504E-02    4.60       0.0  T
   2    -19.0593224 -0.261917E-06  0.302E-02    4.60       1.0  T
   3    -19.0593203  0.205585E-05  0.146E-02    4.60       1.8  T
   4    -19.0593227 -0.238481E-05  0.837E-04    4.60      31.9  T
   5    -19.0593227 -0.179201E-08  0.361E-04    4.60      74.1  T
   6    -19.0593227 -0.135607E-10  0.103E-04    4.60     260.0  T
     SCC iter.                  ...        0 min,  0.002 sec
     gradient                   ...        0 min,  0.001 sec
 * total energy  :   -18.7779254 Eh     change       -0.4013754E-04 Eh
   gradient norm :     0.0015354 Eh/α   predicted    -0.3492155E-04 ( -13.00%)
   displ. norm   :     0.0572544 α      lambda       -0.2036517E-04
   maximum displ.:     0.0449014 α      in ANC's #2, #3, #1, ...

........................................................................
.............................. CYCLE   23 ..............................
........................................................................
   1    -19.0590178 -0.190590E+02  0.492E-02    4.60       0.0  T
   2    -19.0590181 -0.283394E-06  0.297E-02    4.60       1.0  T
   3    -19.0590159  0.220157E-05  0.152E-02    4.60       1.8  T
   4    -19.0590185 -0.257920E-05  0.899E-04    4.60      29.7  T
   5    -19.0590185 -0.232951E-08  0.338E-04    4.60      79.0  T
   6    -19.0590185  0.750546E-10  0.198E-04    4.60     135.0  T
     SCC iter.                  ...        0 min,  0.002 sec
     gradient                   ...        0 min,  0.001 sec
 * total energy  :   -18.7779378 Eh     change       -0.1234404E-04 Eh
   gradient norm :     0.0020412 Eh/α   predicted    -0.1019678E-04 ( -17.40%)
   displ. norm   :     0.0256236 α      lambda       -0.1141291E-04
   maximum displ.:     0.0187851 α      in ANC's #2, #6, #3, ...

........................................................................
.............................. CYCLE   24 ..............................
........................................................................
   1    -19.0591534 -0.190592E+02  0.191E-02    4.60       0.0  T
   2    -19.0591534 -0.157658E-07  0.114E-02    4.60       2.4  T
   3    -19.0591533  0.167051E-06  0.395E-03    4.60       6.8  T
   4    -19.0591535 -0.187637E-06  0.288E-04    4.60      92.7  T
   5    -19.0591535 -0.439400E-10  0.177E-04    4.60     151.1  T
     SCC iter.                  ...        0 min,  0.002 sec
     gradient                   ...        0 min,  0.001 sec
 * total energy  :   -18.7779460 Eh     change       -0.8200488E-05 Eh
   gradient norm :     0.0015972 Eh/α   predicted    -0.5708356E-05 ( -30.39%)
   displ. norm   :     0.0581819 α      lambda       -0.1156949E-04
   maximum displ.:     0.0422459 α      in ANC's #2, #3, #6, ...

........................................................................
.............................. CYCLE   25 ..............................
........................................................................
   1    -19.0594713 -0.190595E+02  0.455E-02    4.61       0.0  T
   2    -19.0594713 -0.394281E-07  0.268E-02    4.61       1.0  T
   3    -19.0594712  0.149971E-06  0.399E-03    4.61       6.7  T
   4    -19.0594714 -0.178892E-06  0.620E-04    4.61      43.1  T
   5    -19.0594714 -0.107946E-09  0.274E-04    4.61      97.6  T
     SCC iter.                  ...        0 min,  0.002 sec
     gradient                   ...        0 min,  0.001 sec
 * total energy  :   -18.7779555 Eh     change       -0.9533561E-05 Eh
   gradient norm :     0.0011635 Eh/α   predicted    -0.5794232E-05 ( -39.22%)
   displ. norm   :     0.0415271 α      lambda       -0.4893659E-05
   maximum displ.:     0.0266115 α      in ANC's #2, #3, #6, ...

........................................................................
.............................. CYCLE   26 ..............................
........................................................................
   1    -19.0593772 -0.190594E+02  0.361E-02    4.61       0.0  T
   2    -19.0593772 -0.259900E-07  0.213E-02    4.61       1.3  T
   3    -19.0593772  0.270801E-07  0.183E-03    4.61      14.6  T
   4    -19.0593772 -0.386869E-07  0.426E-04    4.61      62.7  T
   5    -19.0593772 -0.624496E-09  0.194E-04    4.61     137.6  T
     SCC iter.                  ...        0 min,  0.002 sec
     gradient                   ...        0 min,  0.001 sec
 * total energy  :   -18.7779607 Eh     change       -0.5237000E-05 Eh
   gradient norm :     0.0009395 Eh/α   predicted    -0.2449991E-05 ( -53.22%)
   displ. norm   :     0.0772153 α      lambda       -0.6906513E-05
   maximum displ.:     0.0521784 α      in ANC's #3, #2, #6, ...

........................................................................
.............................. CYCLE   27 ..............................
........................................................................
   1    -19.0591446 -0.190591E+02  0.703E-02    4.61       0.0  T
   2    -19.0591447 -0.101487E-06  0.415E-02    4.61       1.0  T
   3    -19.0591444  0.298747E-06  0.542E-03    4.61       4.9  T
   4    -19.0591447 -0.358508E-06  0.793E-04    4.61      33.7  T
   5    -19.0591447 -0.130915E-08  0.365E-04    4.61      73.3  T
     SCC iter.                  ...        0 min,  0.002 sec
     gradient                   ...        0 min,  0.001 sec
 * total energy  :   -18.7779653 Eh     change       -0.4536918E-05 Eh
   gradient norm :     0.0006940 Eh/α   predicted    -0.3461493E-05 ( -23.70%)
   displ. norm   :     0.0142575 α      lambda       -0.1957351E-05
   maximum displ.:     0.0102151 α      in ANC's #3, #1, #5, ...

   *** GEOMETRY OPTIMIZATION CONVERGED AFTER 27 ITERATIONS ***

------------------------------------------------------------------------
 total energy gain   :        -0.0103529 Eh       -6.4966 kcal/mol
 total RMSD          :         0.8787440 a0        0.4650 Å
 total power (kW/mol):        -1.0067277 (step) -217.4096 (real)
------------------------------------------------------------------------

 ANCopt (total)                0 d,  0 h,  0 min,  0.125 sec
 optimizer setup                ...        0 min,  0.000 sec (  0.097%)
 model hessian                  ...        0 min,  0.005 sec (  4.360%)
 ANC generation                 ...        0 min,  0.000 sec (  0.343%)
 coordinate transformation      ...        0 min,  0.000 sec (  0.222%)
 single point calculation       ...        0 min,  0.112 sec ( 89.202%)
 optimization log               ...        0 min,  0.003 sec (  2.044%)
 hessian update                 ...        0 min,  0.000 sec (  0.209%)
 rational function              ...        0 min,  0.003 sec (  2.102%)

================
 final structure:
================
14
 xtb: 6.5.1 (579679a)
C           -6.46542291070029        1.93009266436538        0.98347912258541
C           -5.99125539397782        2.60578101706699       -0.04519655967095
C           -4.67893753755743        3.33871590594181       -0.06504490733528
O           -3.84767426190049        3.10688935442536        1.05015638168254
C           -3.19107926127520        1.92446008469698        1.11929365879252
C           -3.24875281210432        0.88910581619523        0.29745903853570
H           -7.41926484682167        1.43285016609723        0.94420922079119
H           -5.91567588972203        1.84744624973463        1.90617513453701
H           -6.55089378048578        2.69038580535997       -0.96788103408457
H           -4.87310755816520        4.41831345399905       -0.05353177505498
H           -4.13968444612572        3.10312828189928       -0.99444966530428
H           -2.54907540390007        1.92685153572788        1.99087533386137
H           -3.88988020263412        0.85385312020482       -0.56461210539439
H           -2.64405569462977        0.02205654428530        0.48393815605872
 
 Bond Distances (Angstroems)
 ---------------------------
C1-C2=1.3189         C1-H7=1.0764         C1-H8=1.0772         C2-C1=1.3189         C2-C3=1.5033         C2-H9=1.0825         
C3-C2=1.5033         C3-O4=1.4101         C3-H10=1.0970        C3-H11=1.1000        O4-C3=1.4101         O4-C5=1.3543         
C5-O4=1.3543         C5-C6=1.3231         C5-H12=1.0825        C6-C5=1.3231         C6-H13=1.0749        C6-H14=1.0734        
H7-C1=1.0764         H8-C1=1.0772         H9-C2=1.0825         H10-C3=1.0970        H11-C3=1.1000        H12-C5=1.0825        
H13-C6=1.0749        H14-C6=1.0734        
 C  H  Rav=1.0830 sigma=0.0095  Rmin=1.0734  Rmax=1.1000     8
 C  C  Rav=1.3818 sigma=0.0859  Rmin=1.3189  Rmax=1.5033     3
 O  C  Rav=1.3822 sigma=0.0279  Rmin=1.3543  Rmax=1.4101     2
 
 selected bond angles (degree)
 --------------------
H7-C1-C2=121.79                H8-C1-C2=121.59                H8-C1-H7=116.62                C3-C2-C1=125.02                
H9-C2-C1=121.26                H9-C2-C3=113.70                O4-C3-C2=115.09                H10-C3-C2=108.98               
H10-C3-O4=104.94               H11-C3-C2=109.55               H11-C3-O4=110.12               H11-C3-H10=107.84              
C5-O4-C3=118.02                C6-C5-O4=129.08                H12-C5-O4=109.07               H12-C5-C6=121.85               
H13-C6-C5=123.35               H14-C6-C5=119.97               H14-C6-H13=116.67              
 
 selected dihedral angles (degree)
 ---------------------------------
C3-C2-C1-H7=179.28            C3-C2-C1-H8=359.22            H9-C2-C1-H7=  0.44            H9-C2-C1-H8=180.37            
O4-C3-C2-C1=  9.02            O4-C3-C2-H9=187.94            H10-C3-C2-C1=251.50           H10-C3-C2-H9= 70.42           
H11-C3-C2-C1=133.73           H11-C3-C2-H9=312.64           C5-O4-C3-C2= 75.34            C5-O4-C3-H10=195.12           
C5-O4-C3-H11=310.93           C6-C5-O4-C3=356.99            H12-C5-O4-C3=176.21           H13-C6-C5-O4=358.03           
H13-C6-C5-H12=178.89          H14-C6-C5-O4=178.80           H14-C6-C5-H12=359.66          
           -------------------------------------------------
          |                Final Singlepoint                |
           -------------------------------------------------

          ...................................................
          :                      SETUP                      :
          :.................................................:
          :  # basis functions                  32          :
          :  # atomic orbitals                  32          :
          :  # shells                           20          :
          :  # electrons                        34          :
          :  max. iterations                   250          :
          :  Hamiltonian                  GFN2-xTB          :
          :  restarted?                      false          :
          :  GBSA solvation                  false          :
          :  PC potential                    false          :
          :  electronic temp.          300.0000000     K    :
          :  accuracy                    1.0000000          :
          :  -> integral cutoff          0.2500000E+02      :
          :  -> integral neglect         0.1000000E-07      :
          :  -> SCF convergence          0.1000000E-05 Eh   :
          :  -> wf. convergence          0.1000000E-03 e    :
          :  Broyden damping             0.4000000          :
          ...................................................

 iter      E             dE          RMSdq      gap      omega  full diag
   1    -19.0591447 -0.190591E+02  0.922E-05    4.61       0.0  T
   2    -19.0591447 -0.110312E-10  0.690E-05    4.61     387.5  T
   3    -19.0591447 -0.305640E-10  0.363E-05    4.61     737.0  T

   *** convergence criteria satisfied after 3 iterations ***

         #    Occupation            Energy/Eh            Energy/eV
      -------------------------------------------------------------
         1        2.0000           -0.7104968             -19.3336
       ...           ...                  ...                  ...
        11        2.0000           -0.4875207             -13.2661
        12        2.0000           -0.4632278             -12.6051
        13        2.0000           -0.4598213             -12.5124
        14        2.0000           -0.4449482             -12.1077
        15        2.0000           -0.4358154             -11.8591
        16        2.0000           -0.4093907             -11.1401
        17        2.0000           -0.3786770             -10.3043 (HOMO)
        18                         -0.2091964              -5.6925 (LUMO)
        19                         -0.1869801              -5.0880
        20                          0.0391343               1.0649
        21                          0.0958791               2.6090
        22                          0.1191451               3.2421
       ...                                ...                  ...
        32                          0.6409748              17.4418
      -------------------------------------------------------------
                  HL-Gap            0.1694806 Eh            4.6118 eV
             Fermi-level           -0.2939367 Eh           -7.9984 eV

 SCC (total)                   0 d,  0 h,  0 min,  0.003 sec
 SCC setup                      ...        0 min,  0.000 sec (  2.977%)
 Dispersion                     ...        0 min,  0.000 sec (  1.073%)
 classical contributions        ...        0 min,  0.000 sec (  0.355%)
 integral evaluation            ...        0 min,  0.000 sec ( 14.095%)
 iterations                     ...        0 min,  0.001 sec ( 38.498%)
 molecular gradient             ...        0 min,  0.001 sec ( 37.965%)
 printout                       ...        0 min,  0.000 sec (  3.936%)

         :::::::::::::::::::::::::::::::::::::::::::::::::::::
         ::                     SUMMARY                     ::
         :::::::::::::::::::::::::::::::::::::::::::::::::::::
         :: total energy             -18.777965260619 Eh    ::
         :: gradient norm              0.000693722515 Eh/a0 ::
         :: HOMO-LUMO gap              4.611800885856 eV    ::
         ::.................................................::
         :: SCC energy               -19.059144715533 Eh    ::
         :: -> isotropic ES            0.015732151161 Eh    ::
         :: -> anisotropic ES          0.003653769312 Eh    ::
         :: -> anisotropic XC          0.010094341784 Eh    ::
         :: -> dispersion             -0.008395286941 Eh    ::
         :: repulsion energy           0.281160680985 Eh    ::
         :: add. restraining           0.000000000000 Eh    ::
         :: total charge              -0.000000000000 e     ::
         :::::::::::::::::::::::::::::::::::::::::::::::::::::

           -------------------------------------------------
          |                Property Printout                |
           -------------------------------------------------

    * Orbital Energies and Occupations

         #    Occupation            Energy/Eh            Energy/eV
      -------------------------------------------------------------
         1        2.0000           -0.7104968             -19.3336
       ...           ...                  ...                  ...
         5        2.0000           -0.5818046             -15.8317
         6        2.0000           -0.5580675             -15.1858
         7        2.0000           -0.5534335             -15.0597
         8        2.0000           -0.5370977             -14.6152
         9        2.0000           -0.5176843             -14.0869
        10        2.0000           -0.4946243             -13.4594
        11        2.0000           -0.4875207             -13.2661
        12        2.0000           -0.4632278             -12.6051
        13        2.0000           -0.4598213             -12.5124
        14        2.0000           -0.4449482             -12.1077
        15        2.0000           -0.4358154             -11.8591
        16        2.0000           -0.4093907             -11.1401
        17        2.0000           -0.3786770             -10.3043 (HOMO)
        18                         -0.2091964              -5.6925 (LUMO)
        19                         -0.1869801              -5.0880
        20                          0.0391343               1.0649
        21                          0.0958791               2.6090
        22                          0.1191451               3.2421
        23                          0.1417963               3.8585
        24                          0.1431267               3.8947
        25                          0.1596747               4.3450
        26                          0.1985713               5.4034
        27                          0.2150217               5.8510
        28                          0.2726626               7.4195
       ...                                ...                  ...
        32                          0.6409748              17.4418
      -------------------------------------------------------------
                  HL-Gap            0.1694806 Eh            4.6118 eV
             Fermi-level           -0.2939367 Eh           -7.9984 eV

     #   Z          covCN         q      C6AA      α(0)
     1   6 C        2.836    -0.083    30.067     8.986
     2   6 C        2.883    -0.039    28.979     8.825
     3   6 C        3.702     0.078    19.432     6.303
     4   8 O        1.704    -0.262    18.339     5.782
     5   6 C        2.784     0.102    25.722     8.307
     6   6 C        2.833    -0.140    31.569     9.207
     7   1 H        0.926     0.041     2.439     2.442
     8   1 H        0.926     0.051     2.312     2.378
     9   1 H        0.925     0.036     2.509     2.477
    10   1 H        0.924     0.058     2.227     2.334
    11   1 H        0.923     0.039     2.460     2.453
    12   1 H        0.925     0.045     2.384     2.415
    13   1 H        0.926     0.038     2.470     2.458
    14   1 H        0.926     0.037     2.491     2.468

 Mol. C6AA /au·bohr⁶  :       1813.579104
 Mol. C8AA /au·bohr⁸  :      40678.276489
 Mol. α(0) /au        :         66.834728


Wiberg/Mayer (AO) data.
largest (>0.10) Wiberg bond orders for each atom

 ---------------------------------------------------------------------------
     #   Z sym  total        # sym  WBO       # sym  WBO       # sym  WBO
 ---------------------------------------------------------------------------
     1   6 C    3.992 --     2 C    1.983     7 H    0.976     8 H    0.974
     2   6 C    3.990 --     1 C    1.983     3 C    1.010     9 H    0.965
     3   6 C    3.951 --     2 C    1.010     4 O    0.974    11 H    0.955
                            10 H    0.952
     4   8 O    2.254 --     5 C    1.080     3 C    0.974     6 C    0.136
     5   6 C    3.935 --     6 C    1.872     4 O    1.080    12 H    0.956
     6   6 C    3.978 --     5 C    1.872    14 H    0.978    13 H    0.973
                             4 O    0.136
     7   1 H    0.998 --     1 C    0.976
     8   1 H    0.997 --     1 C    0.974
     9   1 H    0.999 --     2 C    0.965
    10   1 H    0.997 --     3 C    0.952
    11   1 H    0.998 --     3 C    0.955
    12   1 H    0.998 --     5 C    0.956
    13   1 H    0.999 --     6 C    0.973
    14   1 H    0.999 --     6 C    0.978
 ---------------------------------------------------------------------------

Topologies differ in total number of bonds
Writing topology from bond orders to xtbtopo.mol

molecular dipole:
                 x           y           z       tot (Debye)
 q only:       -0.179      -0.001      -0.270
   full:       -0.181      -0.024      -0.386       1.084
molecular quadrupole (traceless):
                xx          xy          yy          xz          yz          zz
 q only:        3.490      -1.956      -1.735       3.874      -3.644      -1.755
  q+dip:        3.189      -1.070      -2.474       5.804      -4.620      -0.715
   full:        3.547      -1.571      -2.237       5.564      -4.749      -1.310

           -------------------------------------------------
          |                Geometry Summary                 |
           -------------------------------------------------

      molecular mass/u    :       84.1166104
   center of mass at/Å    :       -4.5532298       2.3123292       0.5596144
  moments of inertia/u·Å² :        0.8809312E+02   0.1778401E+03   0.2098861E+03
rotational constants/cm⁻¹ :        0.1913615E+00   0.9479097E-01   0.8031799E-01

 * 12 selected distances

     #   Z          #   Z                                           value/Å
     1   6 C        2   6 C                                       1.3189252
     3   6 C        4   8 O                                       1.4101122 (max)
     4   8 O        5   6 C                                       1.3542660
     5   6 C        6   6 C                                       1.3231391
     1   6 C        7   1 H                                       1.0763860
     1   6 C        8   1 H                                       1.0772281
     2   6 C        9   1 H                                       1.0824509
     3   6 C       10   1 H                                       1.0969802
     3   6 C       11   1 H                                       1.1000404
     5   6 C       12   1 H                                       1.0825107
     6   6 C       13   1 H                                       1.0749204
     6   6 C       14   1 H                                       1.0734094 (min)

 * 3 distinct bonds (by element types)

   Z      Z             #   av. dist./Å        max./Å        min./Å
   1 H    6 C           8     1.0829908     1.1000404     1.0734094
   6 C    6 C           2     1.3210321     1.3231391     1.3189252
   6 C    8 O           2     1.3821891     1.4101122     1.3542660


optimized geometry written to: xtbopt.xyz


           -------------------------------------------------
          | TOTAL ENERGY              -18.777965260619 Eh   |
          | GRADIENT NORM               0.000693722515 Eh/α |
          | HOMO-LUMO GAP               4.611800885856 eV   |
           -------------------------------------------------

------------------------------------------------------------------------
 * finished run on 2023/06/22 at 18:14:24.145     
------------------------------------------------------------------------
 total:
 * wall-time:     0 d,  0 h,  0 min,  0.163 sec
 *  cpu-time:     0 d,  0 h,  0 min,  0.304 sec
 * ratio c/w:     1.872 speedup
 SCF:
 * wall-time:     0 d,  0 h,  0 min,  0.007 sec
 *  cpu-time:     0 d,  0 h,  0 min,  0.014 sec
 * ratio c/w:     2.000 speedup
 ANC optimizer:
 * wall-time:     0 d,  0 h,  0 min,  0.129 sec
 *  cpu-time:     0 d,  0 h,  0 min,  0.258 sec
 * ratio c/w:     2.000 speedup

