14
 energy: -18.767612317525 gnorm: 0.079268819750 xtb: 6.5.1 (579679a)
C           -6.70753000000000        2.24159000000000        1.05463000000000
C           -5.90820000000000        2.39701000000000       -0.00408000000000
C           -4.72032000000000        3.31984000000000        0.03678000000000
O           -3.82844000000000        2.95000000000000        1.02959000000000
C           -3.09048000000000        1.80517000000000        1.08581000000000
C           -3.07352000000000        0.87955000000000        0.11630000000000
H           -7.55868000000000        1.57087000000000        0.99867000000000
H           -6.51960000000000        2.77914000000000        1.97922000000000
H           -6.12137000000000        1.84804000000000       -0.91642000000000
H           -5.08091000000000        4.34855000000000        0.24855000000000
H           -4.20591000000000        3.33494000000000       -0.94822000000000
H           -2.47667000000000        1.63871000000000        1.96506000000000
H           -3.65548000000000        0.98308000000000       -0.79193000000000
H           -2.45765000000000       -0.00656000000000        0.23091000000000
14
 energy: -18.774124085920 gnorm: 0.034422469685 xtb: 6.5.1 (579679a)
C           -6.71339655915098        2.24337139455079        1.04320735488505
C           -5.91980800323318        2.39774805506508       -0.00393369033013
C           -4.70604323602264        3.29426008554199        0.03974272905683
O           -3.81386775364095        2.96932837737854        1.06766044142167
C           -3.10378164482872        1.81310961009145        1.06654795208068
C           -3.08497343218930        0.88942898646314        0.10981037923411
H           -7.55051498313673        1.56543745788235        1.01002781611154
H           -6.52408227752807        2.76571697388013        1.96748285349483
H           -6.11800150419893        1.85029573572063       -0.91578177088268
H           -5.03341019347598        4.32115162712359        0.26035717720826
H           -4.19738770558457        3.31161655510390       -0.94091091394940
H           -2.50278706142435        1.67946831264751        1.95378723911443
H           -3.66630950002022        0.97679161640739       -0.79079971038096
H           -2.47039614556538        0.01220521214351        0.21767214293579
14
 energy: -18.775664118687 gnorm: 0.007235310107 xtb: 6.5.1 (579679a)
C           -6.69979020293313        2.21928025847460        1.04639766732474
C           -5.90667513867318        2.38015879668302        0.00569097140385
C           -4.69708090316221        3.28287058095780        0.04314651928519
O           -3.80649733758558        2.98617408317783        1.09984811334693
C           -3.11867659740598        1.82080276669701        1.04916198153521
C           -3.10142987386177        0.89919241176994        0.10106418880830
H           -7.56809189056430        1.58655360264890        1.00724435969683
H           -6.52773575996970        2.74948005237815        1.96651406715305
H           -6.09980955736301        1.85741504076967       -0.91984598458693
H           -5.01043922463055        4.30963337144709        0.25896300014228
H           -4.17862451376313        3.27622356818024       -0.92507236204290
H           -2.51841944261599        1.72234215375051        1.94253224879242
H           -3.68663894263151        0.97126613483165       -0.79550083732932
H           -2.48485061483996        0.02853717823359        0.20472606647035
14
 energy: -18.775826891302 gnorm: 0.005471534928 xtb: 6.5.1 (579679a)
C           -6.71017588901327        2.23173430339366        1.03864990609073
C           -5.90962837515432        2.39017406850018        0.00190843789093
C           -4.69593789564344        3.28595023790268        0.04271577161485
O           -3.81076495615709        2.98735446123378        1.10809114514867
C           -3.12342298885967        1.82287521128214        1.04947728073403
C           -3.11062956848559        0.90145943687546        0.10134662473572
H           -7.55605229107267        1.56833786101417        1.01226368507120
H           -6.51523277708794        2.72698790573579        1.97574695016143
H           -6.09326010940252        1.86572346202172       -0.92497905830441
H           -5.00549122167369        4.31704716732391        0.24402265291448
H           -4.16316451269414        3.26073415511020       -0.91649313643957
H           -2.51715743768787        1.73201255478083        1.94150375602216
H           -3.70412806625986        0.96673851083211       -0.79202448569624
H           -2.48971391080793        0.03280066399334        0.20264047005602
14
 energy: -18.775939828343 gnorm: 0.002314530153 xtb: 6.5.1 (579679a)
C           -6.70301440659138        2.22127990086534        1.04079672613028
C           -5.90868557207305        2.39227838265149        0.00053757101258
C           -4.69628591860596        3.28844643215064        0.04280684583535
O           -3.81371753552166        2.98649913754830        1.11082861119067
C           -3.12188638327047        1.82533122442619        1.05078552829325
C           -3.11580684181789        0.90194435125656        0.10358086292749
H           -7.55470601422910        1.56422260537983        1.00959072651628
H           -6.51379735654719        2.72205600811721        1.97632065499003
H           -6.09679889774530        1.87805205829291       -0.93170082189595
H           -5.00556676819491        4.32146811436758        0.23592990427947
H           -4.15567973018920        3.25575548623384       -0.91163794115627
H           -2.50990346482371        1.73598687898781        1.93972725863792
H           -3.71766032291755        0.96195447601302       -0.78563039726199
H           -2.49125078747263        0.03465494370927        0.20293447050088
14
 energy: -18.776032443430 gnorm: 0.003001897871 xtb: 6.5.1 (579679a)
C           -6.69274730491817        2.20727604238305        1.04122795367334
C           -5.90978887003576        2.39844229639684       -0.00446673234177
C           -4.69591134578936        3.29104465993430        0.04080922434319
O           -3.82140966407357        2.98640191619054        1.11723838399140
C           -3.12331314600113        1.83001024933349        1.05476857331164
C           -3.12710346410095        0.90259284120223        0.11084390153998
H           -7.55144869860608        1.55841514645053        1.00361523245473
H           -6.49829012620585        2.69805138717798        1.98174065414401
H           -6.10862567112715        1.90379803195461       -0.94584721255313
H           -5.00066674287546        4.32772771198064        0.22094065749655
H           -4.14325322198523        3.24536718918147       -0.90592331278465
H           -2.49731731583812        1.74732449166921        1.93519596862111
H           -3.74067140478243        0.95354647653047       -0.77116153663248
H           -2.49421302366073        0.03993155961463        0.20588824473605
14
 energy: -18.776131820137 gnorm: 0.005314460012 xtb: 6.5.1 (579679a)
C           -6.67940618974278        2.19012580779115        1.04028686723560
C           -5.91373439571061        2.40892110715168       -0.01337966570124
C           -4.69457860109543        3.29297593208590        0.03634392677928
O           -3.83192881428195        2.98802612072918        1.12425616301158
C           -3.12436224517304        1.83825149450909        1.05968159268858
C           -3.13886164878548        0.90395632510713        0.12212710851420
H           -7.54532932191240        1.55073000171865        0.99555975518081
H           -6.46840296089924        2.65546362742586        1.99121186069082
H           -6.13275617679052        1.94579881499058       -0.96791219473830
H           -4.99188516057923        4.33408895714505        0.20187123076507
H           -4.12989791722713        3.23218443467949       -0.90219336891585
H           -2.48468590192124        1.76300075300122        1.93085244151008
H           -3.77015791822696        0.94043877233626       -0.74827858522635
H           -2.49877274765397        0.04596785132875        0.21444286820571
14
 energy: -18.776265984956 gnorm: 0.008081698416 xtb: 6.5.1 (579679a)
C           -6.65959549618609        2.16588696489186        1.03817347364126
C           -5.92235221394237        2.42702177624692       -0.02754285899714
C           -4.69207556607202        3.29465097618700        0.02779264250593
O           -3.84710586412469        2.99225205120436        1.13095155432329
C           -3.13000371759941        1.84874739100612        1.06869346321996
C           -3.15577148305985        0.90317766771311        0.14230106734871
H           -7.53558121929948        1.54094998431434        0.98436384900654
H           -6.41539784930093        2.58283937408258        2.00637052158124
H           -6.17626655329200        2.01516848458968       -1.00048793582520
H           -4.97685854210978        4.34225373075478        0.17413896698213
H           -4.11535701629605        3.21308237909199       -0.90174592662126
H           -2.47015143871724        1.78733058645557        1.92588091881958
H           -3.80469669106928        0.92280811150249       -0.71466384767566
H           -2.50354634893079        0.05376052195918        0.23064411169064
14
 energy: -18.776422109453 gnorm: 0.008290387496 xtb: 6.5.1 (579679a)
C           -6.64226116246022        2.14589846540019        1.03506678357191
C           -5.93020059088218        2.44383812541623       -0.03824583346108
C           -4.68926269058206        3.29616450775040        0.01971551340094
O           -3.85699115167246        2.99943341047444        1.13175205158572
C           -3.13447887367357        1.85853676830839        1.07445891021637
C           -3.16605053303092        0.90273340357010        0.15894423977815
H           -7.52411187804186        1.53109006580078        0.97637913394483
H           -6.36654217073725        2.51612132663573        2.01532991489720
H           -6.21433133204592        2.07673588856755       -1.02210215149468
H           -4.96351882228676        4.34832475320281        0.15301233974380
H           -4.10918915961452        3.20005853614393       -0.90586627155882
H           -2.46704972779440        1.80572403504847        1.92456693866893
H           -3.82893509501978        0.90905433888850       -0.68667280029994
H           -2.51183681215807        0.05621637479244        0.24853123100667
14
 energy: -18.776681500613 gnorm: 0.005970322688 xtb: 6.5.1 (579679a)
C           -6.62229755037869        2.12404197081547        1.02978695372038
C           -5.93836258570150        2.46448942491978       -0.04660883706929
C           -4.68485922250450        3.29925450535191        0.01012181147186
O           -3.86190581016313        3.01319443605672        1.12467023840128
C           -3.14430606530674        1.86678434314572        1.08081825489453
C           -3.17889270800731        0.89856884951685        0.17935938882208
H           -7.50623571158421        1.51599048487375        0.97043703900448
H           -6.31015280342078        2.43709680674024        2.01652563169357
H           -6.25397662462456        2.14726468057671       -1.03398948412646
H           -4.94799961991824        4.35542947139814        0.13285153603167
H           -4.11134293421926        3.19050620445798       -0.91733400584133
H           -2.47247547107085        1.82506107524752        1.92579845937270
H           -3.84604545817614        0.89899416480544       -0.65939361733654
H           -2.52590743492406        0.05325358209373        0.27182663096108
14
 energy: -18.776829399112 gnorm: 0.012649518078 xtb: 6.5.1 (579679a)
C           -6.59052576298902        2.08513916587733        1.02494634685002
C           -5.94698897904672        2.49248658158490       -0.05813604695431
C           -4.67972221361326        3.30701062503700       -0.00334178658277
O           -3.86609606269986        3.03325902256286        1.11542644426833
C           -3.15400870778634        1.88112070139528        1.08949714290229
C           -3.19924535555549        0.89421310249518        0.20806938965664
H           -7.48722748931445        1.49551973071861        0.95935575383428
H           -6.22646294228281        2.31536512498979        2.02378121080570
H           -6.31079839682648        2.25701316546272       -1.05943730168524
H           -4.93046128847532        4.37036349479067        0.09642983009202
H           -4.10687340789639        3.17380206759932       -0.93015572524571
H           -2.47534984431006        1.85723410497686        1.93030513819527
H           -3.88267289410222        0.87866126233119       -0.62019262830970
H           -2.54832665510153        0.04874185017825        0.30832223217318
14
 energy: -18.777135669422 gnorm: 0.008377107990 xtb: 6.5.1 (579679a)
C           -6.57566082572133        2.06659785754067        1.02198354108050
C           -5.94440618242299        2.50069402073607       -0.05293400974317
C           -4.67699728096397        3.31446680501986       -0.00787925271492
O           -3.85144227505654        3.05100177713847        1.09896989749418
C           -3.15603009374823        1.88601132838629        1.08885882649011
C           -3.20535610214614        0.89220716070605        0.21636766482863
H           -7.47722471794066        1.48253226148106        0.95899926365045
H           -6.19592109359288        2.26465340403300        2.01004274398031
H           -6.32206136175890        2.29902639071530       -1.04799544062200
H           -4.93065113342335        4.37807009392079        0.08565018565659
H           -4.11571397381914        3.17741385146247       -0.94319542460738
H           -2.49171654912404        1.86450405649730        1.94094088814449
H           -3.88882935130115        0.87828465442788       -0.61583696643408
H           -2.57274905898063        0.03446633793474        0.33089808279631
14
 energy: -18.777358420817 gnorm: 0.010864714796 xtb: 6.5.1 (579679a)
C           -6.54182234384094        2.02843339422212        1.01835598051702
C           -5.94933592800524        2.52277600213920       -0.05664262766536
C           -4.67410241660559        3.32420597418032       -0.02297425152891
O           -3.84516937413163        3.07274510584257        1.08246479104316
C           -3.16814446806437        1.89516210256630        1.09808245406955
C           -3.23135936470563        0.88747720538437        0.24262871137823
H           -7.45739927515968        1.46379704645218        0.95413979375234
H           -6.11680217919641        2.15468455077414        2.00534959122972
H           -6.36839171668929        2.39110465186624       -1.05066044852514
H           -4.92398897298708        4.39172768683024        0.04894098428929
H           -4.11646899526945        3.16982256437296       -0.96005225511563
H           -2.50394575991037        1.88525102747194        1.95251765098469
H           -3.89797313983159        0.88058324283505       -0.59898329786105
H           -2.60985606560265        0.02215944506230        0.37170292343210
14
 energy: -18.777542328887 gnorm: 0.006157661958 xtb: 6.5.1 (579679a)
C           -6.52291816392496        2.01178020610524        1.01636164079022
C           -5.95005680436809        2.52849552387794       -0.05542898972706
C           -4.67480325606100        3.32876714542598       -0.03302121700671
O           -3.83859324601246        3.08057113926856        1.07365722800678
C           -3.17388372980107        1.89790137218528        1.10360984454992
C           -3.24489057191488        0.88952326174792        0.25152553271283
H           -7.44345168803348        1.45543725598342        0.95665580709794
H           -6.07999941263823        2.11286579153584        1.99540194157835
H           -6.39075531071146        2.42404074703786       -1.03986437334167
H           -4.92753468091907        4.39551499079402        0.03043905458900
H           -4.11601418901382        3.17109511314478       -0.96823526624322
H           -2.51670357177544        1.88424157664836        1.96429427867256
H           -3.89019238134403        0.89341597122902       -0.60486781965418
H           -2.63496299348196        0.01627990501567        0.39434233797525
14
 energy: -18.777605859891 gnorm: 0.011762458615 xtb: 6.5.1 (579679a)
C           -6.48303182011139        1.97303206258431        1.01075187509808
C           -5.95401067742789        2.54947467669085       -0.05897388224833
C           -4.67319309414092        3.33970367607237       -0.05126904434102
O           -3.83203662563072        3.10095676561907        1.05814221323735
C           -3.18286059810728        1.91135572188363        1.11007797087594
C           -3.26212768414284        0.89375223744302        0.26969154554905
H           -7.40979856842921        1.42915480714456        0.95710419017622
H           -6.00288489006754        2.01577923976586        1.97914564352155
H           -6.44256389702422        2.51173357317304       -1.03377095986043
H           -4.91998949858931        4.40777979470839       -0.00067593672976
H           -4.11685604674452        3.16785915513575       -0.98480476897194
H           -2.54490544985909        1.89192541311198        1.98353799924879
H           -3.90551788932057        0.88948367918974       -0.59318885722622
H           -2.67498326040444        0.00793919747735        0.43910201167073
14
 energy: -18.777712901787 gnorm: 0.006598762982 xtb: 6.5.1 (579679a)
C           -6.48363651360637        1.97865685849223        1.00931729846469
C           -5.95277968254363        2.54652290749493       -0.05698465420885
C           -4.67588563491785        3.34153369050047       -0.05161394681518
O           -3.83257634831705        3.09867860190941        1.05892330840237
C           -3.18547865345915        1.91079845008725        1.10810945527602
C           -3.25735156199864        0.89677871905235        0.26189702574418
H           -7.40758628500558        1.43144721196283        0.95929020708104
H           -6.00903411448534        2.03465579826084        1.97326172121484
H           -6.43459360506361        2.48935361236301       -1.01983925983264
H           -4.91925590989062        4.40849390960480        0.00838637218008
H           -4.12000594092775        3.17089673185369       -0.98386753302160
H           -2.55630370805674        1.88127465415914        1.98736635843327
H           -3.89875680048651        0.88790574594491       -0.60500624509643
H           -2.67151524124108        0.01293310831403        0.43562989217822
14
 energy: -18.777778564687 gnorm: 0.005427401011 xtb: 6.5.1 (579679a)
C           -6.47701653443946        1.97193248750832        1.00623896811884
C           -5.95363302724264        2.55024110987870       -0.05495421302494
C           -4.67553342373947        3.34283105587000       -0.05364809739942
O           -3.83298587964600        3.10348418662383        1.05569239351196
C           -3.19359369867330        1.91063168552309        1.11157221330990
C           -3.26267035540927        0.89308268497938        0.26888592875049
H           -7.40404180425394        1.42795145109781        0.95731763391640
H           -5.98873950336621        2.00997995439111        1.96750857094285
H           -6.45188211205638        2.51526648696637       -1.01756390727720
H           -4.91410860962957        4.41209498040478        0.00184608037252
H           -4.12368967183028        3.16471160237809       -0.98782456984422
H           -2.55828704331202        1.88794339661164        1.98809724896298
H           -3.89476617497947        0.88685331333423       -0.60176154268587
H           -2.67381216142191        0.01292560443255        0.44346329234571
14
 energy: -18.777786869985 gnorm: 0.009536290574 xtb: 6.5.1 (579679a)
C           -6.45785489314143        1.95212569548208        1.00378617039950
C           -5.96090492444158        2.56974555276875       -0.05734384613116
C           -4.67490180471481        3.35020259717062       -0.06080515406539
O           -3.83574380296604        3.11219664756255        1.04860270705419
C           -3.20717853790273        1.91294569442089        1.11587361909692
C           -3.27327548689323        0.88908252984087        0.27995997331824
H           -7.38657893441294        1.41023970885230        0.95841200984634
H           -5.95164861333728        1.96326077695892        1.95696681186512
H           -6.47551976438660        2.55977002015882       -1.01010846557115
H           -4.90342646272895        4.42335259600385       -0.01397715364552
H           -4.12654714440773        3.15899325281530       -0.99583465250451
H           -2.56984034551122        1.89563450350707        1.99215680189161
H           -3.89408773771977        0.88304291800435       -0.59556178267204
H           -2.68725154743561        0.00933750645354        0.46274296111788
14
 energy: -18.777851298451 gnorm: 0.002762501411 xtb: 6.5.1 (579679a)
C           -6.46022942235096        1.95519066670964        1.00237371681806
C           -5.96061546030390        2.56719955674431       -0.05538592557486
C           -4.67551650846234        3.34851015807104       -0.05976686505283
O           -3.83544459864069        3.11032056789006        1.04941673152423
C           -3.20219186274930        1.91500829573050        1.11349889230640
C           -3.26723073749889        0.89187858423670        0.27664982066902
H           -7.38846063152944        1.41274318227379        0.95810708627567
H           -5.95362541781642        1.96800057918087        1.95438550699883
H           -6.47773744754991        2.55832228785390       -1.00780957744909
H           -4.90511851737995        4.42043600504805       -0.01213852064880
H           -4.12772809661148        3.15951282374637       -0.99433442562150
H           -2.57197114574369        1.89234497004897        1.99352186662249
H           -3.89358606576215        0.88099225140755       -0.59659153887035
H           -2.68530408760081        0.00947007105814        0.46294323200274
14
 energy: -18.777873524049 gnorm: 0.002572197836 xtb: 6.5.1 (579679a)
C           -6.45547778735432        1.95001881653696        0.99938353187167
C           -5.96382228739297        2.57327783080411       -0.05382804094678
C           -4.67591450327740        3.34973541482892       -0.06136805644961
O           -3.83652425652125        3.11201557311878        1.04804710859363
C           -3.20391088549070        1.91702020837112        1.11392132380230
C           -3.26747796531863        0.89215257643298        0.27906377068784
H           -7.38595614671379        1.41061739912642        0.95672927513980
H           -5.93876578346702        1.94972204933115        1.94753656233722
H           -6.48841195677880        2.57598661232107       -1.00109831642691
H           -4.90159176635174        4.42263933217489       -0.01843558232261
H           -4.12973590721918        3.15516416523660       -0.99583326095752
H           -2.57652503785558        1.89415267188189        1.99592690458347
H           -3.89434475539456        0.87727678670501       -0.59447667742339
H           -2.68630096086397        0.01015056313001        0.46930145751091
14
 energy: -18.777885270973 gnorm: 0.005213363440 xtb: 6.5.1 (579679a)
C           -6.44400934741343        1.93522142323468        0.99258897732101
C           -5.97359162427997        2.59066999108615       -0.04892450641303
C           -4.67652946600953        3.35177431392023       -0.06384982255143
O           -3.84058776377961        3.11393027099504        1.04662911849440
C           -3.20806039442297        1.92033011746468        1.11526192328218
C           -3.26813881473319        0.89055585004945        0.28587875357602
H           -7.37680201981124        1.39995432675698        0.95576820510533
H           -5.91198727601200        1.91303775984373        1.92429293737136
H           -6.51896010034633        2.62662641657017       -0.98514433784482
H           -4.88953904350164        4.42742752568692       -0.03330369546400
H           -4.13512885179623        3.14133330733298       -0.99794423781562
H           -2.58257858377561        1.90007292419467        1.99882863106031
H           -3.89450480774581        0.86644995102104       -0.58805032724214
H           -2.68434190637236        0.01254582184317        0.48283838112047
14
 energy: -18.777925408512 gnorm: 0.001535420287 xtb: 6.5.1 (579679a)
C           -6.44965701893241        1.93738353357878        0.99288335863143
C           -5.97495513080945        2.59072997596164       -0.04960116861755
C           -4.67731105421957        3.35042617124649       -0.06425398170703
O           -3.84090339093321        3.11395882628858        1.04650647713696
C           -3.20646486198345        1.92044433036416        1.11664604000452
C           -3.26713312067005        0.89045824540934        0.28804522353271
H           -7.38680506240132        1.40984062267703        0.95612784979457
H           -5.90954823813499        1.89818356925935        1.92314668396332
H           -6.51812942513944        2.62925958189664       -0.98505873230799
H           -4.88924782311943        4.42620121407734       -0.03527305480065
H           -4.13556167529367        3.13799362871733       -0.99756663924879
H           -2.57672324558252        1.90384843866410        1.99717239116121
H           -3.89215819274925        0.86796471095875       -0.58634794268829
H           -2.68016176003114        0.01323715090036        0.48244349514561
14
 energy: -18.777937752552 gnorm: 0.002041162984 xtb: 6.5.1 (579679a)
C           -6.45444989136708        1.93425866609367        0.99021384260803
C           -5.97677951102679        2.58965021366216       -0.05035447117756
C           -4.67775103747485        3.34647880686259       -0.06479847169753
O           -3.84025965124342        3.11271146430456        1.04609276878889
C           -3.19926668474038        1.92155811821131        1.11628655127711
C           -3.26092759469898        0.89086075407252        0.28904972366464
H           -7.39931522394471        1.42053515659103        0.95414776124429
H           -5.91498831914689        1.88852250712934        1.92324335219776
H           -6.52263359369394        2.64046292592721       -0.98209514704159
H           -4.88983990178607        4.42205954749183       -0.03614082734634
H           -4.13581539118076        3.13379323599695       -0.99794313397836
H           -2.56866812012147        1.90866230097716        1.99604982916086
H           -3.89123926438959        0.86684255662638       -0.58104546259006
H           -2.67282581518497        0.01353374605317        0.48216368488988
14
 energy: -18.777945953039 gnorm: 0.001597241496 xtb: 6.5.1 (579679a)
C           -6.45765299641640        1.93587042072740        0.99002461510784
C           -5.97919824206208        2.59225169203807       -0.04918202774961
C           -4.67768960907369        3.34471113766619       -0.06491541322591
O           -3.84040744007750        3.11175634855274        1.04630848911137
C           -3.19748036262306        1.92146034721784        1.11696992660688
C           -3.25907814884821        0.89040531582190        0.29015050717053
H           -7.40147279557256        1.42078295040316        0.95181317050367
H           -5.91723012350894        1.88455155977789        1.92189290119485
H           -6.52579845114065        2.64610730386942       -0.98047232446590
H           -4.88822038648218        4.42066678202720       -0.03769994007565
H           -4.13615960117508        3.13000229218315       -0.99788791463231
H           -2.56490112354598        1.91122348232963        1.99528312446798
H           -3.89082693874214        0.86583092815799       -0.57892193963475
H           -2.66864378073145        0.01430943922730        0.48150682562105
14
 energy: -18.777955486600 gnorm: 0.001163473256 xtb: 6.5.1 (579679a)
C           -6.46185525773157        1.93577689642859        0.98841087848284
C           -5.98376350715778        2.59725507473880       -0.04674680233970
C           -4.67784663536857        3.34195531040773       -0.06456072190213
O           -3.84225356336673        3.10934694411504        1.04769147192722
C           -3.19469665420080        1.92154517696059        1.11846565764562
C           -3.25508162123710        0.88952466926219        0.29254274252064
H           -7.40752659806034        1.42415119530040        0.94824647627672
H           -5.92054182854094        1.87464645028292        1.91699988412744
H           -6.53380858052002        2.65930211357241       -0.97679621575590
H           -4.88306526095405        4.41939725060244       -0.04230455748435
H           -4.13752687798076        3.12031488399987       -0.99662404963156
H           -2.55760641073612        1.91722830617988        1.99349934371709
H           -3.89039568690602        0.86249733078429       -0.57416492101072
H           -2.65879151723912        0.01698839736474        0.48021081342680
14
 energy: -18.777960723600 gnorm: 0.000939487152 xtb: 6.5.1 (579679a)
C           -6.46384661963864        1.93458409191694        0.98706226041624
C           -5.98650963598006        2.60037233270250       -0.04595495157873
C           -4.67822472577100        3.34077719581911       -0.06455665551319
O           -3.84405345754296        3.10835144997145        1.04857606197616
C           -3.19235729807174        1.92286888847006        1.11823407829781
C           -3.25176098900296        0.88980083793818        0.29358288699077
H           -7.41211081917814        1.42740575951018        0.94666873224512
H           -5.91928500770544        1.86465553470784        1.91323482762989
H           -6.53939669952500        2.66936936374384       -0.97404344342783
H           -4.87941387688330        4.41907891094231       -0.04611332807437