      -----------------------------------------------------------      
     |                   =====================                   |     
     |                           x T B                           |     
     |                   =====================                   |     
     |                         S. Grimme                         |     
     |          Mulliken Center for Theoretical Chemistry        |     
     |                    University of Bonn                     |     
      -----------------------------------------------------------      

   * xtb version 6.5.1 (579679a) compiled by 'ehlert@majestix' on 2022-07-11

   xtb is free software: you can redistribute it and/or modify it under
   the terms of the GNU Lesser General Public License as published by
   the Free Software Foundation, either version 3 of the License, or
   (at your option) any later version.
   
   xtb is distributed in the hope that it will be useful,
   but WITHOUT ANY WARRANTY; without even the implied warranty of
   MERCHANTABILITY or FITNESS FOR A PARTICULAR PURPOSE.  See the
   GNU Lesser General Public License for more details.
   
   Cite this work as:
   * C. Bannwarth, E. Caldeweyher, S. Ehlert, A. Hansen, P. Pracht,
     J. Seibert, S. Spicher, S. Grimme, WIREs Comput. Mol. Sci., 2020, 11,
     e01493. DOI: 10.1002/wcms.1493
   
   for GFN2-xTB:
   * C. Bannwarth, S. Ehlert and S. Grimme., J. Chem. Theory Comput., 2019,
     15, 1652-1671. DOI: 10.1021/acs.jctc.8b01176
   for GFN1-xTB:
   * S. Grimme, C. Bannwarth, P. Shushkov, J. Chem. Theory Comput., 2017,
     13, 1989-2009. DOI: 10.1021/acs.jctc.7b00118
   for GFN0-xTB:
   * P. Pracht, E. Caldeweyher, S. Ehlert, S. Grimme, ChemRxiv, 2019, preprint.
     DOI: 10.26434/chemrxiv.8326202.v1
   for GFN-FF:
   * S. Spicher and S. Grimme, Angew. Chem. Int. Ed., 2020, 59, 15665-15673.
     DOI: 10.1002/anie.202004239
   
   for ALPB and GBSA implicit solvation:
   * S. Ehlert, M. Stahn, S. Spicher, S. Grimme, J. Chem. Theory Comput.,
     2021, 17, 4250-4261. DOI: 10.1021/acs.jctc.1c00471
   
   for DFT-D4:
   * E. Caldeweyher, C. Bannwarth and S. Grimme, J. Chem. Phys., 2017,
     147, 034112. DOI: 10.1063/1.4993215
   * E. Caldeweyher, S. Ehlert, A. Hansen, H. Neugebauer, S. Spicher,
     C. Bannwarth and S. Grimme, J. Chem. Phys., 2019, 150, 154122.
     DOI: 10.1063/1.5090222
   * E. Caldeweyher, J.-M. Mewes, S. Ehlert and S. Grimme, Phys. Chem. Chem. Phys.
     2020, 22, 8499-8512. DOI: 10.1039/D0CP00502A
   
   for sTDA-xTB:
   * S. Grimme and C. Bannwarth, J. Chem. Phys., 2016, 145, 054103.
     DOI: 10.1063/1.4959605
   
   in the mass-spec context:
   * V. Asgeirsson, C. Bauer and S. Grimme, Chem. Sci., 2017, 8, 4879.
     DOI: 10.1039/c7sc00601b
   * J. Koopman and S. Grimme, ACS Omega 2019, 4, 12, 15120-15133.
     DOI: 10.1021/acsomega.9b02011
   
   for metadynamics refer to:
   * S. Grimme, J. Chem. Theory Comput., 2019, 155, 2847-2862
     DOI: 10.1021/acs.jctc.9b00143
   
   for SPH calculations refer to:
   * S. Spicher and S. Grimme, J. Chem. Theory Comput., 2021, 17, 1701-1714
     DOI: 10.1021/acs.jctc.0c01306
   
   with help from (in alphabetical order)
   P. Atkinson, C. Bannwarth, F. Bohle, G. Brandenburg, E. Caldeweyher
   M. Checinski, S. Dohm, S. Ehlert, S. Ehrlich, I. Gerasimov, C. Hölzer
   A. Katbashev, J. Koopman, C. Lavigne, S. Lehtola, F. März, M. Müller,
   F. Musil, H. Neugebauer, J. Pisarek, C. Plett, P. Pracht, F. Pultar,
   J. Seibert, P. Shushkov, S. Spicher, M. Stahn, M. Steiner, T. Strunk,
   J. Stückrath, T. Rose, and J. Unsleber
   
 * started run on 2023/06/22 at 11:24:23.198     

           -------------------------------------------------
          |                Calculation Setup                |
           -------------------------------------------------

          program call               : xtb claisen_start_2.xyz --opt
          hostname                   : c04
          coordinate file            : claisen_start_2.xyz
          omp threads                :                     2

   ID    Z sym.   atoms
    1    6 C      1-3, 5, 6
    2    8 O      4
    3    1 H      7-14

           -------------------------------------------------
          |                 G F N 2 - x T B                 |
           -------------------------------------------------

        Reference                      10.1021/acs.jctc.8b01176
      * Hamiltonian:
        H0-scaling (s, p, d)           1.850000    2.230000    2.230000
        zeta-weighting                 0.500000
      * Dispersion:
        s8                             2.700000
        a1                             0.520000
        a2                             5.000000
        s9                             5.000000
      * Repulsion:
        kExp                           1.500000    1.000000
        rExp                           1.000000
      * Coulomb:
        alpha                          2.000000
        third order                    shell-resolved
        anisotropic                    true
        a3                             3.000000
        a5                             4.000000
        cn-shift                       1.200000
        cn-exp                         4.000000
        max-rad                        5.000000


          ...................................................
          :                      SETUP                      :
          :.................................................:
          :  # basis functions                  32          :
          :  # atomic orbitals                  32          :
          :  # shells                           20          :
          :  # electrons                        34          :
          :  max. iterations                   250          :
          :  Hamiltonian                  GFN2-xTB          :
          :  restarted?                      false          :
          :  GBSA solvation                  false          :
          :  PC potential                    false          :
          :  electronic temp.          300.0000000     K    :
          :  accuracy                    1.0000000          :
          :  -> integral cutoff          0.2500000E+02      :
          :  -> integral neglect         0.1000000E-07      :
          :  -> SCF convergence          0.1000000E-05 Eh   :
          :  -> wf. convergence          0.1000000E-03 e    :
          :  Broyden damping             0.4000000          :
          ...................................................

 iter      E             dE          RMSdq      gap      omega  full diag
   1    -18.9837401 -0.189837E+02  0.447E+00    4.71       0.0  T
   2    -19.0165972 -0.328570E-01  0.281E+00    4.33       1.0  T
   3    -19.0093784  0.721879E-02  0.162E+00    4.38       1.0  T
   4    -19.0264647 -0.170863E-01  0.550E-01    4.26       1.0  T
   5    -19.0278386 -0.137394E-02  0.994E-02    4.33       1.0  T
   6    -19.0278659 -0.272770E-04  0.689E-02    4.34       1.0  T
   7    -19.0278906 -0.246852E-04  0.286E-02    4.34       1.0  T
   8    -19.0278925 -0.193656E-05  0.538E-03    4.34       5.0  T
   9    -19.0278926 -0.466862E-07  0.211E-03    4.34      12.7  T
  10    -19.0278926 -0.804602E-08  0.556E-04    4.34      48.1  T
  11    -19.0278926 -0.421217E-09  0.175E-04    4.34     152.7  T

   *** convergence criteria satisfied after 11 iterations ***

         #    Occupation            Energy/Eh            Energy/eV
      -------------------------------------------------------------
         1        2.0000           -0.7072759             -19.2460
       ...           ...                  ...                  ...
        11        2.0000           -0.4858382             -13.2203
        12        2.0000           -0.4592552             -12.4970
        13        2.0000           -0.4544562             -12.3664
        14        2.0000           -0.4478904             -12.1877
        15        2.0000           -0.4271947             -11.6246
        16        2.0000           -0.4023726             -10.9491
        17        2.0000           -0.3734275             -10.1615 (HOMO)
        18                         -0.2139740              -5.8225 (LUMO)
        19                         -0.1916902              -5.2162
        20                          0.0119536               0.3253
        21                          0.1016924               2.7672
        22                          0.1227692               3.3407
       ...                                ...                  ...
        32                          0.5798632              15.7789
      -------------------------------------------------------------
                  HL-Gap            0.1594536 Eh            4.3390 eV
             Fermi-level           -0.2937007 Eh           -7.9920 eV

 SCC (total)                   0 d,  0 h,  0 min,  0.006 sec
 SCC setup                      ...        0 min,  0.000 sec (  3.225%)
 Dispersion                     ...        0 min,  0.000 sec (  1.550%)
 classical contributions        ...        0 min,  0.000 sec (  0.309%)
 integral evaluation            ...        0 min,  0.001 sec ( 11.096%)
 iterations                     ...        0 min,  0.003 sec ( 55.421%)
 molecular gradient             ...        0 min,  0.001 sec ( 25.813%)
 printout                       ...        0 min,  0.000 sec (  1.838%)

         :::::::::::::::::::::::::::::::::::::::::::::::::::::
         ::                     SUMMARY                     ::
         :::::::::::::::::::::::::::::::::::::::::::::::::::::
         :: total energy             -18.764534311527 Eh    ::
         :: gradient norm              0.079920150729 Eh/a0 ::
         :: HOMO-LUMO gap              4.338952514210 eV    ::
         ::.................................................::
         :: SCC energy               -19.027892598628 Eh    ::
         :: -> isotropic ES            0.015886276280 Eh    ::
         :: -> anisotropic ES          0.004160570902 Eh    ::
         :: -> anisotropic XC          0.009859261846 Eh    ::
         :: -> dispersion             -0.008629921908 Eh    ::
         :: repulsion energy           0.263341129981 Eh    ::
         :: add. restraining           0.000000000000 Eh    ::
         :: total charge               0.000000000000 e     ::
         :::::::::::::::::::::::::::::::::::::::::::::::::::::

      ----------------------------------------------------------- 
     |                   =====================                   |
     |                        A N C O P T                        |
     |                   =====================                   |
     |               Approximate Normal Coordinate               |
     |                Rational Function Optimizer                |
      ----------------------------------------------------------- 

          ...................................................
          :                      SETUP                      :
          :.................................................:
          :   optimization level            normal          :
          :   max. optcycles                   200          :
          :   ANC micro-cycles                  20          :
          :   degrees of freedom                36          :
          :.................................................:
          :   RF solver                   davidson          :
          :   write xtbopt.log                true          :
          :   linear?                        false          :
          :   energy convergence         0.5000000E-05 Eh   :
          :   grad. convergence          0.1000000E-02 Eh/α :
          :   maximium RF displ.         1.0000000          :
          :   Hlow (freq-cutoff)         0.1000000E-01      :
          :   Hmax (freq-cutoff)         5.0000000          :
          :   S6 in model hess.         20.0000000          :
          ...................................................

generating ANC from model Hessian ...
Using Lindh-Hessian (1995)
 Shifting diagonal of input Hessian by   7.903002926328312E-003
 Lowest  eigenvalues of input Hessian
    0.000000    0.000000    0.000000    0.000000    0.000000    0.000000
    0.010000    0.011833    0.012905    0.019966    0.021721    0.024055
    0.040817    0.041774    0.054869    0.060630    0.071587    0.074655
 Highest eigenvalues
    1.182879    1.365615    1.503122    1.782028    1.861227    2.044562
 

........................................................................
.............................. CYCLE    1 ..............................
........................................................................
   1    -19.0278926 -0.190279E+02  0.501E-05    4.34       0.0  T
   2    -19.0278926 -0.581935E-11  0.311E-05    4.34     858.0  T
   3    -19.0278926 -0.526157E-11  0.192E-05    4.34    1393.9  T
     SCC iter.                  ...        0 min,  0.001 sec
     gradient                   ...        0 min,  0.001 sec
 * total energy  :   -18.7645343 Eh     change       -0.3743139E-10 Eh
   gradient norm :     0.0799200 Eh/α   predicted     0.0000000E+00 (-100.00%)
   displ. norm   :     0.3314968 α      lambda       -0.1247147E-01
   maximum displ.:     0.1768774 α      in ANC's #6, #1, #13, ...

........................................................................
.............................. CYCLE    2 ..............................
........................................................................
   1    -19.0488769 -0.190489E+02  0.320E-01    4.46       0.0  T
   2    -19.0489415 -0.645879E-04  0.196E-01    4.45       1.0  T
   3    -19.0489297  0.117533E-04  0.535E-02    4.46       1.0  T
   4    -19.0489419 -0.122022E-04  0.242E-02    4.45       1.1  T
   5    -19.0489478 -0.587691E-05  0.610E-03    4.45       4.4  T
   6    -19.0489479 -0.774880E-07  0.245E-03    4.45      10.9  T
   7    -19.0489479 -0.305965E-08  0.761E-04    4.45      35.1  T
   8    -19.0489479 -0.979913E-09  0.463E-04    4.45      57.7  T
     SCC iter.                  ...        0 min,  0.002 sec
     gradient                   ...        0 min,  0.001 sec
 * total energy  :   -18.7730789 Eh     change       -0.8544623E-02 Eh
   gradient norm :     0.0342755 Eh/α   predicted    -0.6920984E-02 ( -19.00%)
   displ. norm   :     0.3722892 α      lambda       -0.5002530E-02
   maximum displ.:     0.2448619 α      in ANC's #1, #4, #6, ...

........................................................................
.............................. CYCLE    3 ..............................
........................................................................
   1    -19.0578587 -0.190579E+02  0.317E-01    4.53       0.0  T
   2    -19.0578867 -0.280005E-04  0.190E-01    4.52       1.0  T
   3    -19.0578765  0.101851E-04  0.410E-02    4.52       1.0  T
   4    -19.0578877 -0.111630E-04  0.169E-02    4.52       1.6  T
   5    -19.0578906 -0.290248E-05  0.469E-03    4.51       5.7  T
   6    -19.0578906 -0.227854E-07  0.161E-03    4.51      16.6  T
   7    -19.0578906 -0.111350E-08  0.821E-04    4.51      32.6  T
   8    -19.0578906 -0.532725E-08  0.265E-04    4.51     100.7  T
     SCC iter.                  ...        0 min,  0.002 sec
     gradient                   ...        0 min,  0.001 sec
 * total energy  :   -18.7757239 Eh     change       -0.2644959E-02 Eh
   gradient norm :     0.0090220 Eh/α   predicted    -0.2847940E-02 (   7.67%)
   displ. norm   :     0.2724954 α      lambda       -0.1278073E-02
   maximum displ.:     0.2146350 α      in ANC's #1, #6, #4, ...

........................................................................
.............................. CYCLE    4 ..............................
........................................................................
   1    -19.0564570 -0.190565E+02  0.203E-01    4.50       0.0  T
   2    -19.0564581 -0.113826E-05  0.120E-01    4.51       1.0  T
   3    -19.0564515  0.660970E-05  0.257E-02    4.51       1.0  T
   4    -19.0564592 -0.763993E-05  0.336E-03    4.51       8.0  T
   5    -19.0564592 -0.143659E-07  0.161E-03    4.51      16.6  T
   6    -19.0564592 -0.147117E-08  0.813E-04    4.51      32.9  T
   7    -19.0564592 -0.520938E-08  0.197E-04    4.51     135.5  T
     SCC iter.                  ...        0 min,  0.002 sec
     gradient                   ...        0 min,  0.001 sec
 * total energy  :   -18.7764833 Eh     change       -0.7594358E-03 Eh
   gradient norm :     0.0099060 Eh/α   predicted    -0.6864873E-03 (  -9.61%)
   displ. norm   :     0.2361368 α      lambda       -0.6881210E-03
   maximum displ.:     0.1999538 α      in ANC's #1, #6, #4, ...

........................................................................
.............................. CYCLE    5 ..............................
........................................................................
   1    -19.0557038 -0.190557E+02  0.146E-01    4.52       0.0  T
   2    -19.0557045 -0.650931E-06  0.869E-02    4.52       1.0  T
   3    -19.0557029  0.158395E-05  0.133E-02    4.52       2.0  T
   4    -19.0557049 -0.198959E-05  0.288E-03    4.52       9.3  T
   5    -19.0557049 -0.126733E-07  0.136E-03    4.52      19.6  T
   6    -19.0557049 -0.715762E-09  0.498E-04    4.52      53.6  T
   7    -19.0557049 -0.178942E-08  0.185E-04    4.52     144.3  T
     SCC iter.                  ...        0 min,  0.002 sec
     gradient                   ...        0 min,  0.001 sec
 * total energy  :   -18.7770270 Eh     change       -0.5436730E-03 Eh
   gradient norm :     0.0072119 Eh/α   predicted    -0.3632438E-03 ( -33.19%)
   displ. norm   :     0.3180678 α      lambda       -0.7027515E-03
   maximum displ.:     0.2509038 α      in ANC's #1, #6, #4, ...

........................................................................
.............................. CYCLE    6 ..............................
........................................................................
   1    -19.0561408 -0.190561E+02  0.184E-01    4.55       0.0  T
   2    -19.0561419 -0.109104E-05  0.109E-01    4.56       1.0  T
   3    -19.0561422 -0.311990E-06  0.655E-03    4.56       4.1  T
   4    -19.0561423 -0.165553E-06  0.403E-03    4.56       6.6  T
   5    -19.0561424 -0.459261E-07  0.169E-03    4.56      15.8  T
   6    -19.0561424 -0.118707E-07  0.333E-04    4.56      80.2  T
   7    -19.0561424  0.723368E-10  0.186E-04    4.56     143.8  T
     SCC iter.                  ...        0 min,  0.002 sec
     gradient                   ...        0 min,  0.001 sec
 * total energy  :   -18.7775170 Eh     change       -0.4899903E-03 Eh
   gradient norm :     0.0071088 Eh/α   predicted    -0.3869277E-03 ( -21.03%)
   displ. norm   :     0.2848272 α      lambda       -0.4118633E-03
   maximum displ.:     0.2227521 α      in ANC's #1, #4, #6, ...

........................................................................
.............................. CYCLE    7 ..............................
........................................................................
   1    -19.0571676 -0.190572E+02  0.170E-01    4.58       0.0  T
   2    -19.0571687 -0.107864E-05  0.101E-01    4.59       1.0  T
   3    -19.0571607  0.796703E-05  0.278E-02    4.59       1.0  T
   4    -19.0571698 -0.913614E-05  0.328E-03    4.59       8.1  T
   5    -19.0571698 -0.802562E-08  0.126E-03    4.59      21.2  T
   6    -19.0571698  0.108840E-08  0.500E-04    4.59      53.5  T
   7    -19.0571698 -0.239680E-08  0.133E-04    4.59     200.7  T
     SCC iter.                  ...        0 min,  0.002 sec
     gradient                   ...        0 min,  0.001 sec
 * total energy  :   -18.7777695 Eh     change       -0.2525292E-03 Eh
   gradient norm :     0.0063957 Eh/α   predicted    -0.2226390E-03 ( -11.84%)
   displ. norm   :     0.1537641 α      lambda       -0.1594043E-03
   maximum displ.:     0.1141316 α      in ANC's #1, #2, #3, ...

........................................................................
.............................. CYCLE    8 ..............................
........................................................................
   1    -19.0584984 -0.190585E+02  0.955E-02    4.59       0.0  T
   2    -19.0584990 -0.617776E-06  0.570E-02    4.60       1.0  T
   3    -19.0584985  0.519123E-06  0.793E-03    4.60       3.4  T
   4    -19.0584992 -0.652049E-06  0.252E-03    4.60      10.6  T
   5    -19.0584992 -0.408979E-07  0.985E-04    4.60      27.1  T
   6    -19.0584992  0.947864E-09  0.403E-04    4.60      66.4  T
     SCC iter.                  ...        0 min,  0.001 sec
     gradient                   ...        0 min,  0.001 sec
 * total energy  :   -18.7778738 Eh     change       -0.1042614E-03 Eh
   gradient norm :     0.0034684 Eh/α   predicted    -0.8158374E-04 ( -21.75%)
   displ. norm   :     0.1032356 α      lambda       -0.6611009E-04
   maximum displ.:     0.0627869 α      in ANC's #1, #3, #2, ...

........................................................................
.............................. CYCLE    9 ..............................
........................................................................
   1    -19.0593780 -0.190594E+02  0.773E-02    4.60       0.0  T
   2    -19.0593784 -0.386498E-06  0.460E-02    4.61       1.0  T
   3    -19.0593763  0.208124E-05  0.143E-02    4.61       1.9  T
   4    -19.0593787 -0.234385E-05  0.130E-03    4.61      20.5  T
   5    -19.0593787 -0.641778E-08  0.655E-04    4.61      40.8  T
   6    -19.0593787  0.749253E-09  0.436E-04    4.61      61.3  T
     SCC iter.                  ...        0 min,  0.001 sec
     gradient                   ...        0 min,  0.001 sec
 * total energy  :   -18.7779156 Eh     change       -0.4177157E-04 Eh
   gradient norm :     0.0019748 Eh/α   predicted    -0.3340820E-04 ( -20.02%)
   displ. norm   :     0.1044975 α      lambda       -0.2285324E-04
   maximum displ.:     0.0622612 α      in ANC's #3, #1, #2, ...

........................................................................
.............................. CYCLE   10 ..............................
........................................................................
   1    -19.0592481 -0.190592E+02  0.781E-02    4.61       0.0  T
   2    -19.0592484 -0.309776E-06  0.465E-02    4.61       1.0  T
   3    -19.0592451  0.333520E-05  0.182E-02    4.61       1.5  T
   4    -19.0592489 -0.377331E-05  0.109E-03    4.61      24.5  T
   5    -19.0592489 -0.240791E-08  0.526E-04    4.61      50.8  T
   6    -19.0592489  0.350905E-09  0.287E-04    4.61      93.1  T
     SCC iter.                  ...        0 min,  0.002 sec
     gradient                   ...        0 min,  0.001 sec
 * total energy  :   -18.7779323 Eh     change       -0.1672545E-04 Eh
   gradient norm :     0.0016001 Eh/α   predicted    -0.1148170E-04 ( -31.35%)
   displ. norm   :     0.0413622 α      lambda       -0.1041967E-04
   maximum displ.:     0.0328473 α      in ANC's #3, #2, #4, ...

........................................................................
.............................. CYCLE   11 ..............................
........................................................................
   1    -19.0594816 -0.190595E+02  0.408E-02    4.61       0.0  T
   2    -19.0594817 -0.691351E-07  0.241E-02    4.61       1.1  T
   3    -19.0594813  0.368527E-06  0.592E-03    4.61       4.5  T
   4    -19.0594817 -0.417971E-06  0.682E-04    4.61      39.2  T
   5    -19.0594817 -0.122703E-08  0.270E-04    4.61      98.9  T
     SCC iter.                  ...        0 min,  0.001 sec
     gradient                   ...        0 min,  0.001 sec
 * total energy  :   -18.7779406 Eh     change       -0.8301100E-05 Eh
   gradient norm :     0.0014688 Eh/α   predicted    -0.5214621E-05 ( -37.18%)
   displ. norm   :     0.0294673 α      lambda       -0.7143423E-05
   maximum displ.:     0.0221361 α      in ANC's #3, #6, #1, ...

........................................................................
.............................. CYCLE   12 ..............................
........................................................................
   1    -19.0591639 -0.190592E+02  0.305E-02    4.61       0.0  T
   2    -19.0591640 -0.494414E-07  0.180E-02    4.61       1.5  T
   3    -19.0591639  0.101992E-06  0.322E-03    4.61       8.3  T
   4    -19.0591640 -0.118614E-06  0.523E-04    4.61      51.1  T
   5    -19.0591640 -0.135458E-08  0.212E-04    4.61     125.8  T
     SCC iter.                  ...        0 min,  0.001 sec
     gradient                   ...        0 min,  0.001 sec
 * total energy  :   -18.7779467 Eh     change       -0.6159839E-05 Eh
   gradient norm :     0.0011476 Eh/α   predicted    -0.3573335E-05 ( -41.99%)
   displ. norm   :     0.0392836 α      lambda       -0.5328704E-05
   maximum displ.:     0.0291652 α      in ANC's #3, #1, #6, ...

........................................................................
.............................. CYCLE   13 ..............................
........................................................................
   1    -19.0592618 -0.190593E+02  0.408E-02    4.61       0.0  T
   2    -19.0592618 -0.306141E-07  0.240E-02    4.61       1.1  T
   3    -19.0592617  0.141602E-06  0.374E-03    4.61       7.1  T
   4    -19.0592618 -0.164449E-06  0.442E-04    4.61      60.4  T
   5    -19.0592618 -0.251202E-09  0.244E-04    4.61     109.7  T
     SCC iter.                  ...        0 min,  0.001 sec
     gradient                   ...        0 min,  0.001 sec
 * total energy  :   -18.7779524 Eh     change       -0.5616247E-05 Eh
   gradient norm :     0.0013188 Eh/α   predicted    -0.2667405E-05 ( -52.51%)
   displ. norm   :     0.0775232 α      lambda       -0.8738992E-05
   maximum displ.:     0.0637933 α      in ANC's #3, #6, #1, ...

........................................................................
.............................. CYCLE   14 ..............................
........................................................................
   1    -19.0590286 -0.190590E+02  0.846E-02    4.61       0.0  T
   2    -19.0590287 -0.965456E-07  0.499E-02    4.61       1.0  T
   3    -19.0590286  0.383050E-07  0.262E-03    4.61      10.2  T
   4    -19.0590287 -0.730898E-07  0.882E-04    4.61      30.3  T
   5    -19.0590287 -0.450305E-08  0.370E-04    4.61      72.2  T
     SCC iter.                  ...        0 min,  0.001 sec
     gradient                   ...        0 min,  0.001 sec
 * total energy  :   -18.7779615 Eh     change       -0.9132747E-05 Eh
   gradient norm :     0.0012907 Eh/α   predicted    -0.4380585E-05 ( -52.03%)
   displ. norm   :     0.0938613 α      lambda       -0.7745572E-05
   maximum displ.:     0.0753534 α      in ANC's #3, #1, #6, ...

........................................................................
.............................. CYCLE   15 ..............................
........................................................................
   1    -19.0595235 -0.190595E+02  0.102E-01    4.61       0.0  T
   2    -19.0595236 -0.125464E-06  0.603E-02    4.61       1.0  T
   3    -19.0595235  0.966062E-07  0.371E-03    4.61       7.2  T
   4    -19.0595237 -0.153127E-06  0.930E-04    4.61      28.7  T
   5    -19.0595237 -0.331121E-08  0.441E-04    4.61      60.6  T
     SCC iter.                  ...        0 min,  0.001 sec
     gradient                   ...        0 min,  0.001 sec
 * total energy  :   -18.7779672 Eh     change       -0.5697017E-05 Eh
   gradient norm :     0.0009600 Eh/α   predicted    -0.3888423E-05 ( -31.75%)
   displ. norm   :     0.0349426 α      lambda       -0.2831401E-05
   maximum displ.:     0.0262900 α      in ANC's #3, #1, #4, ...

........................................................................
.............................. CYCLE   16 ..............................
........................................................................
   1    -19.0592806 -0.190593E+02  0.378E-02    4.61       0.0  T
   2    -19.0592807 -0.220489E-07  0.223E-02    4.61       1.2  T
   3    -19.0592807 -0.649689E-08  0.594E-04    4.61      45.0  T
   4    -19.0592807 -0.111514E-08  0.330E-04    4.61      80.9  T
     SCC iter.                  ...        0 min,  0.001 sec
     gradient                   ...        0 min,  0.001 sec
 * total energy  :   -18.7779688 Eh     change       -0.1603074E-05 Eh
   gradient norm :     0.0004867 Eh/α   predicted    -0.1415423E-05 ( -11.71%)
   displ. norm   :     0.0116782 α      lambda       -0.1012490E-05
   maximum displ.:     0.0068786 α      in ANC's #3, #1, #4, ...

   *** GEOMETRY OPTIMIZATION CONVERGED AFTER 16 ITERATIONS ***

------------------------------------------------------------------------
 total energy gain   :        -0.0134345 Eh       -8.4303 kcal/mol
 total RMSD          :         0.5189284 a0        0.2746 Å
 total power (kW/mol):        -2.2045136 (step) -616.3368 (real)
------------------------------------------------------------------------

 ANCopt (total)                0 d,  0 h,  0 min,  0.057 sec
 optimizer setup                ...        0 min,  0.000 sec (  0.157%)
 model hessian                  ...        0 min,  0.003 sec (  4.851%)
 ANC generation                 ...        0 min,  0.000 sec (  0.325%)
 coordinate transformation      ...        0 min,  0.000 sec (  0.254%)
 single point calculation       ...        0 min,  0.051 sec ( 89.113%)
 optimization log               ...        0 min,  0.001 sec (  1.795%)
 hessian update                 ...        0 min,  0.000 sec (  0.207%)
 rational function              ...        0 min,  0.001 sec (  1.968%)

================
 final structure:
================
14
 xtb: 6.5.1 (579679a)
C           -1.02034905522410        5.86786725965360       -3.31372306753605
C           -2.10557710024068        5.39303661042301       -2.73430454171526
C           -2.57093374005372        3.96574375946769       -2.80855731576453
O           -1.85223872948349        3.14724006303705       -3.70399445916517
C           -2.08317722931274        3.29852724353195       -5.02985347129975
C           -2.88032951106893        4.15599958971226       -5.64618781388530
H           -0.37999017197435        5.24214492729104       -3.91261648380194
H           -0.73086754834308        6.89978018022393       -3.21545351711933
H           -2.74264800758532        6.02628285332379       -2.13075575151137
H           -3.64407175097520        3.93993591994941       -3.04979303460081
H           -2.43610227703838        3.49641969548130       -1.82613782229400
H           -1.50079113149880        2.56773196792041       -5.57624635428382
H           -3.45576983450880        4.90386870649699       -5.13149548310361
H           -2.96617391269241        4.13411122348758       -6.71612088391911
 
 Bond Distances (Angstroems)
 ---------------------------
C1-C2=1.3187         C1-H7=1.0772         C1-H8=1.0762         C2-C1=1.3187         C2-C3=1.5031         C2-H9=1.0822         
C3-C2=1.5031         C3-O4=1.4101         C3-H10=1.1002        C3-H11=1.0971        O4-C3=1.4101         O4-C5=1.3543         
C5-O4=1.3543         C5-C6=1.3231         C5-H12=1.0825        C6-C5=1.3231         C6-H13=1.0749        C6-H14=1.0736        
H7-C1=1.0772         H8-C1=1.0762         H9-C2=1.0822         H10-C3=1.1002        H11-C3=1.0971        H12-C5=1.0825        
H13-C6=1.0749        H14-C6=1.0736        
 C  H  Rav=1.0830 sigma=0.0096  Rmin=1.0736  Rmax=1.1002     8
 C  C  Rav=1.3816 sigma=0.0859  Rmin=1.3187  Rmax=1.5031     3
 O  C  Rav=1.3822 sigma=0.0279  Rmin=1.3543  Rmax=1.4101     2
 
 selected bond angles (degree)
 --------------------
H7-C1-C2=121.63                H8-C1-C2=121.77                H8-C1-H7=116.61                C3-C2-C1=125.10                
H9-C2-C1=121.25                H9-C2-C3=113.64                O4-C3-C2=115.14                H10-C3-C2=109.58               
H10-C3-O4=110.14               H11-C3-C2=108.90               H11-C3-O4=104.93               H11-C3-H10=107.83              
C5-O4-C3=118.03                C6-C5-O4=129.14                H12-C5-O4=109.09               H12-C5-C6=121.77               
H13-C6-C5=123.40               H14-C6-C5=119.95               H14-C6-H13=116.65              
 
 selected dihedral angles (degree)
 ---------------------------------
C3-C2-C1-H7=  0.93            C3-C2-C1-H8=180.72            H9-C2-C1-H7=179.76            H9-C2-C1-H8=359.56            
O4-C3-C2-C1=352.15            O4-C3-C2-H9=173.23            H10-C3-C2-C1=227.36           H10-C3-C2-H9= 48.45           
H11-C3-C2-C1=109.64           H11-C3-C2-H9=290.72           C5-O4-C3-C2=284.83            C5-O4-C3-H10= 49.32           
C5-O4-C3-H11=165.13           C6-C5-O4-C3=  2.35            H12-C5-O4-C3=183.08           H13-C6-C5-O4=  2.00           
H13-C6-C5-H12=181.18          H14-C6-C5-O4=181.19           H14-C6-C5-H12=  0.37          
           -------------------------------------------------
          |                Final Singlepoint                |
           -------------------------------------------------

          ...................................................
          :                      SETUP                      :
          :.................................................:
          :  # basis functions                  32          :
          :  # atomic orbitals                  32          :
          :  # shells                           20          :
          :  # electrons                        34          :
          :  max. iterations                   250          :
          :  Hamiltonian                  GFN2-xTB          :
          :  restarted?                      false          :
          :  GBSA solvation                  false          :
          :  PC potential                    false          :
          :  electronic temp.          300.0000000     K    :
          :  accuracy                    1.0000000          :
          :  -> integral cutoff          0.2500000E+02      :
          :  -> integral neglect         0.1000000E-07      :
          :  -> SCF convergence          0.1000000E-05 Eh   :
          :  -> wf. convergence          0.1000000E-03 e    :
          :  Broyden damping             0.4000000          :
          ...................................................

 iter      E             dE          RMSdq      gap      omega  full diag
   1    -19.0592807 -0.190593E+02  0.192E-04    4.61       0.0  T
   2    -19.0592807 -0.564917E-10  0.140E-04    4.61     190.9  T
   3    -19.0592807 -0.177231E-09  0.613E-05    4.61     435.9  T

   *** convergence criteria satisfied after 3 iterations ***

         #    Occupation            Energy/Eh            Energy/eV
      -------------------------------------------------------------
         1        2.0000           -0.7105270             -19.3344
       ...           ...                  ...                  ...
        11        2.0000           -0.4874426             -13.2640
        12        2.0000           -0.4632865             -12.6067
        13        2.0000           -0.4598849             -12.5141
        14        2.0000           -0.4448528             -12.1051
        15        2.0000           -0.4359912             -11.8639
        16        2.0000           -0.4094175             -11.1408
        17        2.0000           -0.3786336             -10.3031 (HOMO)
        18                         -0.2090525              -5.6886 (LUMO)
        19                         -0.1869582              -5.0874
        20                          0.0390838               1.0635
        21                          0.0958956               2.6095
        22                          0.1187794               3.2322
       ...                                ...                  ...
        32                          0.6412933              17.4505
      -------------------------------------------------------------
                  HL-Gap            0.1695811 Eh            4.6145 eV
             Fermi-level           -0.2938430 Eh           -7.9959 eV

 SCC (total)                   0 d,  0 h,  0 min,  0.003 sec
 SCC setup                      ...        0 min,  0.000 sec (  2.950%)
 Dispersion                     ...        0 min,  0.000 sec (  1.044%)
 classical contributions        ...        0 min,  0.000 sec (  0.348%)
 integral evaluation            ...        0 min,  0.000 sec ( 14.917%)
 iterations                     ...        0 min,  0.001 sec ( 36.571%)
 molecular gradient             ...        0 min,  0.001 sec ( 39.654%)
 printout                       ...        0 min,  0.000 sec (  3.406%)

         :::::::::::::::::::::::::::::::::::::::::::::::::::::
         ::                     SUMMARY                     ::
         :::::::::::::::::::::::::::::::::::::::::::::::::::::
         :: total energy             -18.777968790134 Eh    ::
         :: gradient norm              0.000488038550 Eh/a0 ::
         :: HOMO-LUMO gap              4.614536276610 eV    ::
         ::.................................................::
         :: SCC energy               -19.059280661346 Eh    ::
         :: -> isotropic ES            0.015733763699 Eh    ::
         :: -> anisotropic ES          0.003662715392 Eh    ::
         :: -> anisotropic XC          0.010088696237 Eh    ::
         :: -> dispersion             -0.008399627557 Eh    ::
         :: repulsion energy           0.281293159232 Eh    ::
         :: add. restraining           0.000000000000 Eh    ::
         :: total charge              -0.000000000000 e     ::
         :::::::::::::::::::::::::::::::::::::::::::::::::::::

           -------------------------------------------------
          |                Property Printout                |
           -------------------------------------------------

    * Orbital Energies and Occupations

         #    Occupation            Energy/Eh            Energy/eV
      -------------------------------------------------------------
         1        2.0000           -0.7105270             -19.3344
       ...           ...                  ...                  ...
         5        2.0000           -0.5818442             -15.8328
         6        2.0000           -0.5582054             -15.1895
         7        2.0000           -0.5533775             -15.0582
         8        2.0000           -0.5371438             -14.6164
         9        2.0000           -0.5176664             -14.0864
        10        2.0000           -0.4947368             -13.4625
        11        2.0000           -0.4874426             -13.2640
        12        2.0000           -0.4632865             -12.6067
        13        2.0000           -0.4598849             -12.5141
        14        2.0000           -0.4448528             -12.1051
        15        2.0000           -0.4359912             -11.8639
        16        2.0000           -0.4094175             -11.1408
        17        2.0000           -0.3786336             -10.3031 (HOMO)
        18                         -0.2090525              -5.6886 (LUMO)
        19                         -0.1869582              -5.0874
        20                          0.0390838               1.0635
        21                          0.0958956               2.6095
        22                          0.1187794               3.2322
        23                          0.1419126               3.8616
        24                          0.1430808               3.8934
        25                          0.1594870               4.3399
        26                          0.1991974               5.4204
        27                          0.2149772               5.8498
        28                          0.2725784               7.4172
       ...                                ...                  ...
        32                          0.6412933              17.4505
      -------------------------------------------------------------
                  HL-Gap            0.1695811 Eh            4.6145 eV
             Fermi-level           -0.2938430 Eh           -7.9959 eV

     #   Z          covCN         q      C6AA      α(0)
     1   6 C        2.836    -0.083    30.068     8.986
     2   6 C        2.883    -0.040    28.980     8.825
     3   6 C        3.701     0.078    19.431     6.303
     4   8 O        1.704    -0.262    18.338     5.782
     5   6 C        2.784     0.102    25.721     8.307
     6   6 C        2.833    -0.140    31.569     9.207
     7   1 H        0.926     0.050     2.314     2.379
     8   1 H        0.926     0.041     2.439     2.442
     9   1 H        0.925     0.036     2.508     2.476
    10   1 H        0.923     0.039     2.458     2.452
    11   1 H        0.924     0.058     2.227     2.334
    12   1 H        0.925     0.045     2.385     2.415
    13   1 H        0.926     0.038     2.471     2.458
    14   1 H        0.926     0.037     2.491     2.468

 Mol. C6AA /au·bohr⁶  :       1813.597964
 Mol. C8AA /au·bohr⁸  :      40678.510223
 Mol. α(0) /au        :         66.835133


Wiberg/Mayer (AO) data.
largest (>0.10) Wiberg bond orders for each atom

 ---------------------------------------------------------------------------
     #   Z sym  total        # sym  WBO       # sym  WBO       # sym  WBO
 ---------------------------------------------------------------------------
     1   6 C    3.992 --     2 C    1.982     8 H    0.976     7 H    0.974
     2   6 C    3.990 --     1 C    1.982     3 C    1.010     9 H    0.965
     3   6 C    3.951 --     2 C    1.010     4 O    0.975    10 H    0.955
                            11 H    0.952
     4   8 O    2.254 --     5 C    1.080     3 C    0.975     6 C    0.137
     5   6 C    3.935 --     6 C    1.871     4 O    1.080    12 H    0.956
     6   6 C    3.978 --     5 C    1.871    14 H    0.978    13 H    0.973
                             4 O    0.137
     7   1 H    0.997 --     1 C    0.974
     8   1 H    0.998 --     1 C    0.976
     9   1 H    0.999 --     2 C    0.965
    10   1 H    0.998 --     3 C    0.955
    11   1 H    0.997 --     3 C    0.952
    12   1 H    0.998 --     5 C    0.956
    13   1 H    0.999 --     6 C    0.973
    14   1 H    0.999 --     6 C    0.978
 ---------------------------------------------------------------------------

Topologies differ in total number of bonds
Writing topology from bond orders to xtbtopo.mol

molecular dipole:
                 x           y           z       tot (Debye)
 q only:       -0.184       0.215       0.159
   full:       -0.292       0.262       0.169       1.086
molecular quadrupole (traceless):
                xx          xy          yy          xz          yz          zz
 q only:        0.590      -3.094       2.854      -0.428       0.507      -3.444
  q+dip:        1.735      -5.176       3.426      -0.233       0.248      -5.161
   full:        1.457      -4.806       3.104       0.155       0.341      -4.560

           -------------------------------------------------
          |                Geometry Summary                 |
           -------------------------------------------------

      molecular mass/u    :       84.1166104
   center of mass at/Å    :       -2.0884316       4.2830702      -3.8716749
  moments of inertia/u·Å² :        0.8825432E+02   0.1772794E+03   0.2098524E+03
rotational constants/cm⁻¹ :        0.1910120E+00   0.9509074E-01   0.8033088E-01

 * 12 selected distances

     #   Z          #   Z                                           value/Å
     1   6 C        2   6 C                                       1.3186774
     3   6 C        4   8 O                                       1.4100634 (max)
     4   8 O        5   6 C                                       1.3542979
     5   6 C        6   6 C                                       1.3230945
     1   6 C        7   1 H                                       1.0771543
     1   6 C        8   1 H                                       1.0762439
     2   6 C        9   1 H                                       1.0821883
     3   6 C       10   1 H                                       1.1002209
     3   6 C       11   1 H                                       1.0970838
     5   6 C       12   1 H                                       1.0824882
     6   6 C       13   1 H                                       1.0748712
     6   6 C       14   1 H                                       1.0735946 (min)

 * 3 distinct bonds (by element types)

   Z      Z             #   av. dist./Å        max./Å        min./Å
   1 H    6 C           8     1.0829807     1.1002209     1.0735946
   6 C    6 C           2     1.3208859     1.3230945     1.3186774
   6 C    8 O           2     1.3821807     1.4100634     1.3542979


optimized geometry written to: xtbopt.xyz


           -------------------------------------------------
          | TOTAL ENERGY              -18.777968790134 Eh   |
          | GRADIENT NORM               0.000488038550 Eh/α |
          | HOMO-LUMO GAP               4.614536276610 eV   |
           -------------------------------------------------

------------------------------------------------------------------------
 * finished run on 2023/06/22 at 11:24:23.519     
------------------------------------------------------------------------
 total:
 * wall-time:     0 d,  0 h,  0 min,  0.320 sec
 *  cpu-time:     0 d,  0 h,  0 min,  0.176 sec
 * ratio c/w:     0.549 speedup
 SCF:
 * wall-time:     0 d,  0 h,  0 min,  0.006 sec
 *  cpu-time:     0 d,  0 h,  0 min,  0.011 sec
 * ratio c/w:     1.990 speedup
 ANC optimizer:
 * wall-time:     0 d,  0 h,  0 min,  0.061 sec
 *  cpu-time:     0 d,  0 h,  0 min,  0.121 sec
 * ratio c/w:     1.993 speedup

normal termination of xtb
