14
 energy: -18.764534311565 gnorm: 0.079920049975 xtb: 6.5.1 (579679a)
C           -1.13957000000000        5.72928000000000       -3.45065000000000
C           -2.24033000000000        5.33149000000000       -2.80677000000000
C           -2.57371000000000        3.87741000000000       -2.65439000000000
O           -1.97497000000000        3.15296000000000       -3.67232000000000
C           -2.06629000000000        3.33290000000000       -5.02119000000000
C           -2.71541000000000        4.34196000000000       -5.62076000000000
H           -0.45309000000000        5.00648000000000       -3.88163000000000
H           -0.92076000000000        6.78743000000000       -3.54990000000000
H           -2.91048000000000        6.07667000000000       -2.38836000000000
H           -3.67265000000000        3.76244000000000       -2.61949000000000
H           -2.17328000000000        3.51404000000000       -1.68482000000000
H           -1.56877000000000        2.60677000000000       -5.65594000000000
H           -3.23511000000000        5.12319000000000       -5.08431000000000
H           -2.72460000000000        4.39567000000000       -6.70471000000000
14
 energy: -18.773078934359 gnorm: 0.034275614161 xtb: 6.5.1 (579679a)
C           -1.11115828644520        5.76502509300404       -3.40989952764411
C           -2.20770151929767        5.35279518971399       -2.79421611275965
C           -2.56794463559204        3.89330008812786       -2.69749319567396
O           -1.97104698433621        3.09763810505806       -3.67967280085388
C           -2.10131747047518        3.32246326175751       -5.01284674719642
C           -2.74393072828676        4.31834731446748       -5.61779179310376
H           -0.42973693612747        5.06092207910810       -3.85961997856887
H           -0.90611241916278        6.81392474850227       -3.53558744785412
H           -2.89819948602520        6.07171913660016       -2.37194599444846
H           -3.66494618598495        3.77365804061056       -2.67980614099260
H           -2.19084973871055        3.49668181413573       -1.74035131823059
H           -1.57606468771890        2.59297601292498       -5.61238592740184
H           -3.26527100145976        5.09589185019728       -5.09028571684825
H           -2.73473992037732        4.38334726579199       -6.69333729842348
14
 energy: -18.775723893017 gnorm: 0.009022419544 xtb: 6.5.1 (579679a)
C           -1.09925978937197        5.79679864060345       -3.41440696598324
C           -2.19454197177277        5.36279153189866       -2.82261390400756
C           -2.56243548612518        3.90565406848881       -2.73186257804503
O           -1.95410852687507        3.05974558946200       -3.68436364849449
C           -2.10950324832087        3.32887608665486       -5.00332673749912
C           -2.77131422361969        4.30038268507233       -5.60871016899024
H           -0.38976004959909        5.11068655387446       -3.84049948813639
H           -0.84774638200491        6.84022369323499       -3.45819556331021
H           -2.89365510845796        6.04826878621437       -2.36312545352520
H           -3.65866305990101        3.79430031505393       -2.75983532743777
H           -2.21420947798528        3.49680979909831       -1.77351253076194
H           -1.58120900581265        2.57618953890183       -5.57172217347222
H           -3.31491522523202        5.06229828187308       -5.08375165505329
H           -2.77769844492152        4.35566442956892       -6.67931380528332
14
 energy: -18.776483328810 gnorm: 0.009906217890 xtb: 6.5.1 (579679a)
C           -1.05924297386546        5.81187142492924       -3.36968789960633
C           -2.17189632359263        5.36513182746698       -2.81515961246964
C           -2.56270634857371        3.91341265144329       -2.74688243255115
O           -1.93918590600308        3.06168228120148       -3.68963858544985
C           -2.11025523346023        3.32486900182568       -5.00663870738613
C           -2.80579973995863        4.27429877644479       -5.61013647377246
H           -0.36879454718285        5.13751317224575       -3.84859499189824
H           -0.82295738973625        6.85840179454371       -3.42205971440856
H           -2.88546378072919        6.03723663309837       -2.35826277365186
H           -3.65948202903073        3.81612779294261       -2.81966797521316
H           -2.24953856082779        3.50096335652713       -1.77721082393386
H           -1.56367824163500        2.57580338165051       -5.56747126011421
H           -3.35401018662416        5.03323557785429       -5.08281331276038
H           -2.81600873878029        4.32814232782617       -6.68101543678420
14
 energy: -18.777027001801 gnorm: 0.007213388617 xtb: 6.5.1 (579679a)
C           -1.04350527282529        5.82309803784433       -3.35645023361101
C           -2.15799864326793        5.36889422407457       -2.81355213206132
C           -2.56314931926635        3.92133237389681       -2.76025588954989
O           -1.92361986788402        3.07286457709991       -3.69573189769017
C           -2.10940741922166        3.31527641151298       -5.01419225288715
C           -2.83258686913738        4.24919146273415       -5.61249104121404
H           -0.34278877049779        5.15698782630545       -3.83400526269550
H           -0.80036786911078        6.87259881931564       -3.37793790359719
H           -2.86849531871609        6.03486041824870       -2.34224738813545
H           -3.65793070918772        3.83533074752519       -2.86759736108619
H           -2.28251331990781        3.50848945989040       -1.78027648307267
H           -1.54825578083463        2.57611104177814       -5.57604635985889
H           -3.38230046970818        5.00476084532150       -5.07982982679913
H           -2.85610037043435        4.29889375445224       -6.68462596774142
14
 energy: -18.777516992058 gnorm: 0.007110984790 xtb: 6.5.1 (579679a)
C           -1.02543080552925        5.83555729705484       -3.33663018406555
C           -2.13991588471703        5.37649134840132       -2.80362678567478
C           -2.56426674420264        3.93337745817320       -2.78019390737474
O           -1.89427719719827        3.09487289525054       -3.70143405149250
C           -2.09623980511811        3.30844071551910       -5.02290009544170
C           -2.85253510018552        4.22169354907292       -5.61354762706500
H           -0.32063284336039        5.17967880353535       -3.82315230778669
H           -0.77650015479541        6.88553668217702       -3.32314617707452
H           -2.84230797125713        6.03900557115384       -2.31432146575624
H           -3.65405277719229        3.86306191898192       -2.93614938538809
H           -2.33359486338888        3.51153004525333       -1.79015184172512
H           -1.53671214049186        2.57373322652717       -5.58899232447124
H           -3.41537484398528        4.96365054623103       -5.07401739831121
H           -2.91717886857793        4.25205994266842       -6.68697644837265
14
 energy: -18.777769521290 gnorm: 0.006396837212 xtb: 6.5.1 (579679a)
C           -1.01096918599523        5.84715926315598       -3.31749448378759
C           -2.12758110355222        5.38618134081110       -2.79216116284443
C           -2.56406062671489        3.94638067435855       -2.79937836086665
O           -1.86603625104096        3.11748027326553       -3.70566466544767
C           -2.09628500379473        3.29819913297693       -5.02970502117547
C           -2.88102151796878        4.18878108231095       -5.61787711156233
H           -0.30904898504926        5.19917874123174       -3.81716543123915
H           -0.75145609864121        6.89383016163389       -3.26981235434020
H           -2.81885836313523        6.04598210001995       -2.28186422250188
H           -3.64659407312621        3.88736335903278       -2.99476012330950
H           -2.37437278642952        3.51227386351559       -1.80739353700567
H           -1.52100839808860        2.57623540626021       -5.59592503267587
H           -3.43848025475124        4.93082586542717       -5.07650264890775
H           -2.96324735171190        4.20881873599964       -6.68953584433588
14
 energy: -18.777873782656 gnorm: 0.003468785176 xtb: 6.5.1 (579679a)
C           -1.00358490930670        5.85271173179930       -3.30282944125253
C           -2.12185615315229        5.39240994912621       -2.77860686781996
C           -2.56334234600964        3.95421782232890       -2.80822133521545
O           -1.85186500207512        3.13388103512282       -3.70867651586098
C           -2.09111485384747        3.29995015438886       -5.03296726167133
C           -2.88822784723305        4.17570366822291       -5.62490156699430
H           -0.31017433031196        5.20700760827195       -3.81596119369836
H           -0.73904746323707        6.89501024635357       -3.24444281165174
H           -2.80682039023897        6.05033894006853       -2.25817887003045
H           -3.64092685182376        3.90053618091040       -3.02122821349508
H           -2.39214093380007        3.50880735282706       -1.82007985724853
H           -1.51882869765744        2.57504268023576       -5.59629101048641
H           -3.45437987295757        4.91456643213835       -5.08777309379887
H           -2.98671034834887        4.17850619820540       -6.69508196077606
14
 energy: -18.777915554223 gnorm: 0.001976818217 xtb: 6.5.1 (579679a)
C           -1.00185234130026        5.85624698010346       -3.29520820844601
C           -2.11904160355743        5.39663811010605       -2.76720488907067
C           -2.56173466544741        3.95964907329933       -2.81155269378185
O           -1.84496335466070        3.14479889183908       -3.71093706262585
C           -2.09051861327469        3.30215246859142       -5.03448456240171
C           -2.89486367506372        4.16604021619143       -5.63277004434111
H           -0.31869982573895        5.21064661639693       -3.82181998963784
H           -0.72872995420953        6.89512752111099       -3.22591320581572
H           -2.79912322656647        6.05161989045460       -2.23783036580410
H           -3.63694640974418        3.91024386642143       -3.03335177075224
H           -2.39935881746187        3.50444514402749       -1.82753804646512
H           -1.51522402639128        2.57564932666786       -5.59313316889761
H           -3.46315609451226        4.90804899521216       -5.10237396318410
H           -2.99480739207123        4.15738289957779       -6.70112202877610
14
 energy: -18.777932279675 gnorm: 0.001600363302 xtb: 6.5.1 (579679a)
C           -1.00054946191674        5.86030579361025       -3.28873334052402
C           -2.11512916622918        5.39962364893035       -2.75487697196945
C           -2.56137141433438        3.96451780904978       -2.81357390303104
O           -1.84005510040086        3.15421397738732       -3.71380210386047
C           -2.08882202612970        3.30505448802921       -5.03635212163471
C           -2.89926333216919        4.15805156205666       -5.64142836110216
H           -0.32707605198586        5.21526809016393       -3.82796791194650
H           -0.72130822962260        6.89588801469277       -3.21454890874442
H           -2.78831264248903        6.04925366603099       -2.21023691053134
H           -3.63608537433887        3.92072060226738       -3.04434472076802
H           -2.40783402393799        3.50042570911727       -1.83145607287643
H           -1.51043013919144        2.57649370902487       -5.59013836112692
H           -3.47092861685443        4.90334310355201       -5.11837422061380
H           -3.00185442039970        4.13552982608724       -6.70940609127078
14
 energy: -18.777940580775 gnorm: 0.001469107000 xtb: 6.5.1 (579679a)
C           -1.00338088388942        5.86161477645123       -3.29079136213294
C           -2.11465547700541        5.39929931873778       -2.75169503838157
C           -2.56237693160773        3.96532982830849       -2.81189924880731
O           -1.84286507674957        3.15480781131284       -3.71435480991931
C           -2.08972573409388        3.30439704784757       -5.03699463968229
C           -2.89774345833325        4.15700691724442       -5.64470438442758
H           -0.33414315626470        5.21729617590412       -3.83662424203190
H           -0.71984503535762        6.89711715223927       -3.21137312564922
H           -2.78426330673723        6.04593247789614       -2.19972482220815
H           -3.63711471042986        3.92234329275859       -3.03924832819093
H           -2.40721380434705        3.50127760288761       -1.83061553590864
H           -1.51025468285861        2.57558446918754       -5.58951977843089
H           -3.47094611622134        4.90341598373204       -5.12474064706587
H           -2.99449162610432        4.13326714549239       -6.71295403716345
14
 energy: -18.777946740614 gnorm: 0.001148466371 xtb: 6.5.1 (579679a)
C           -1.00457333205069        5.86268917460487       -3.29305028865024
C           -2.11266737316454        5.39832355702667       -2.75016876269021
C           -2.56383523834236        3.96545439137476       -2.81100164981827
O           -1.84441907747280        3.15329264202105       -3.71348829022417
C           -2.08913261767130        3.30302146446744       -5.03669281748955
C           -2.89701814537632        4.15650118051055       -5.64493002289971
H           -0.33708900240027        5.22071458407482       -3.84377655674714
H           -0.72141618039474        6.89811695447802       -3.21301658541878
H           -2.77930859132969        6.04253351957686       -2.19239630981097
H           -3.63927277332762        3.92440997229411       -3.03971143862983
H           -2.41048730474552        3.50145514522799       -1.82846569402045
H           -1.50898409900900        2.57496670178453       -5.58925880854306
H           -3.47059018724011        4.90249488600788       -5.12535937413265
H           -2.99022607747503        4.13471582655047       -6.71392340092504
14
 energy: -18.777952356860 gnorm: 0.001319550505 xtb: 6.5.1 (579679a)
C           -1.00703508384559        5.86374788989107       -3.29642423975708
C           -2.11179035787322        5.39734307365498       -2.74843502868880
C           -2.56540937708448        3.96543173139415       -2.81028954099887
O           -1.84745270456983        3.15093823246357       -3.71205198400981
C           -2.08915388001027        3.30134116974926       -5.03576322243671
C           -2.89308388515769        4.15725300254031       -5.64513881972457
H           -0.34263020444808        5.22478358960162       -3.85423999670605
H           -0.72398959931800        6.89859660244946       -3.21468846762689
H           -2.77360157083885        6.03945898899214       -2.18210292273921
H           -3.64074101568944        3.92668029141312       -3.03934195838124
H           -2.41331272910922        3.50103386409479       -1.82782846806557
H           -1.50770328429994        2.57391240666756       -5.58769056912707
H           -3.46762146763357        4.90275749367941       -5.12634468183188
H           -2.98549484012180        4.13541166340859       -6.71490009990630
14
 energy: -18.777961489607 gnorm: 0.001290716538 xtb: 6.5.1 (579679a)
C           -1.01138524396780        5.86593325720138       -3.30254567738665
C           -2.10922001268577        5.39613145549777       -2.74325782220985
C           -2.56770241006114        3.96601319189809       -2.81012434022124
O           -1.84976295959044        3.14878479423664       -3.70889940855445
C           -2.08680258238805        3.29948103449118       -5.03355663081694
C           -2.88868346035519        4.15615433993812       -5.64582088903268
H           -0.35509163468770        5.23283755923096       -3.87670675359947
H           -0.72590080412383        6.89953727259897       -3.21260387724552
H           -2.76184558335727        6.03468477019026       -2.16205609457581
H           -3.64218636679838        3.93242022696278       -3.04384888298832
H           -2.42191649533639        3.49942920416603       -1.82781950493945
H           -1.50539522055191        2.57099446615338       -5.58353518889298
H           -3.46472170458145        4.90140055851142       -5.12857202699997
H           -2.97840552151469        4.13488786892304       -6.71589290253673
14
 energy: -18.777967186624 gnorm: 0.000960655535 xtb: 6.5.1 (579679a)
C           -1.01795606951956        5.86719649736714       -3.31099371341252
C           -2.10616735479180        5.39388264228193       -2.73580690827273
C           -2.57015603100765        3.96597212666587       -2.80872127370536
O           -1.85284131204647        3.14728535718200       -3.70521280570860
C           -2.08497790797729        3.29833875843498       -5.03090496472445
C           -2.88283053813495        4.15588937560997       -5.64651664394741
H           -0.37228690017393        5.24018308596119       -3.90253595894751
H           -0.73080507525101        6.89897566212092       -3.21609647609149
H           -2.74763611758659        6.02846922801786       -2.13859493547856
H           -3.64357636691999        3.93827386444598       -3.04715311125900
H           -2.43152291357853        3.49714362589832       -1.82680496797034
H           -1.50198725878632        2.56884424135534       -5.57828579692152
H           -3.45908411181851        4.90260792178513       -5.13136605846126
H           -2.96719204240739        4.13562761287337       -6.71624638509932
14
 energy: -18.777968789698 gnorm: 0.000486815792 xtb: 6.5.1 (579679a)
C           -1.02034905522410        5.86786725965360       -3.31372306753605
C           -2.10557710024068        5.39303661042301       -2.73430454171526
C           -2.57093374005372        3.96574375946769       -2.80855731576453
O           -1.85223872948349        3.14724006303705       -3.70399445916517
C           -2.08317722931274        3.29852724353195       -5.02985347129975
C           -2.88032951106893        4.15599958971226       -5.64618781388530
H           -0.37999017197435        5.24214492729104       -3.91261648380194
H           -0.73086754834308        6.89978018022393       -3.21545351711933
H           -2.74264800758532        6.02628285332379       -2.13075575151137
H           -3.64407175097520        3.93993591994941       -3.04979303460081
H           -2.43610227703838        3.49641969548130       -1.82613782229400
H           -1.50079113149880        2.56773196792041       -5.57624635428382
H           -3.45576983450880        4.90386870649699       -5.13149548310361
H           -2.96617391269241        4.13411122348758       -6.71612088391911
