
                                 *****************
                                 * O   R   C   A *
                                 *****************

                                            #,                                       
                                            ###                                      
                                            ####                                     
                                            #####                                    
                                            ######                                   
                                           ########,                                 
                                     ,,################,,,,,                         
                               ,,#################################,,                 
                          ,,##########################################,,             
                       ,#########################################, ''#####,          
                    ,#############################################,,   '####,        
                  ,##################################################,,,,####,       
                ,###########''''           ''''###############################       
              ,#####''   ,,,,##########,,,,          '''####'''          '####       
            ,##' ,,,,###########################,,,                        '##       
           ' ,,###''''                  '''############,,,                           
         ,,##''                                '''############,,,,        ,,,,,,###''
      ,#''                                            '''#######################'''  
     '                                                          ''''####''''         
             ,#######,   #######,   ,#######,      ##                                
            ,#'     '#,  ##    ##  ,#'     '#,    #''#        ######   ,####,        
            ##       ##  ##   ,#'  ##            #'  '#       #        #'  '#        
            ##       ##  #######   ##           ,######,      #####,   #    #        
            '#,     ,#'  ##    ##  '#,     ,#' ,#      #,         ##   #,  ,#        
             '#######'   ##     ##  '#######'  #'      '#     #####' # '####'        



                  #######################################################
                  #                        -***-                        #
                  #          Department of theory and spectroscopy      #
                  #    Directorship and core code : Frank Neese         #
                  #        Max Planck Institute fuer Kohlenforschung    #
                  #                Kaiser Wilhelm Platz 1               #
                  #                 D-45470 Muelheim/Ruhr               #
                  #                      Germany                        #
                  #                                                     #
                  #                  All rights reserved                #
                  #                        -***-                        #
                  #######################################################


                         Program Version 5.0.2 -  RELEASE  -


 With contributions from (in alphabetic order):
   Daniel Aravena         : Magnetic Suceptibility
   Michael Atanasov       : Ab Initio Ligand Field Theory (pilot matlab implementation)
   Alexander A. Auer      : GIAO ZORA, VPT2 properties, NMR spectrum
   Ute Becker             : Parallelization
   Giovanni Bistoni       : ED, misc. LED, open-shell LED, HFLD
   Martin Brehm           : Molecular dynamics
   Dmytro Bykov           : SCF Hessian
   Vijay G. Chilkuri      : MRCI spin determinant printing, contributions to CSF-ICE
   Dipayan Datta          : RHF DLPNO-CCSD density
   Achintya Kumar Dutta   : EOM-CC, STEOM-CC
   Dmitry Ganyushin       : Spin-Orbit,Spin-Spin,Magnetic field MRCI
   Miquel Garcia          : C-PCM and meta-GGA Hessian, CC/C-PCM, Gaussian charge scheme
   Yang Guo               : DLPNO-NEVPT2, F12-NEVPT2, CIM, IAO-localization
   Andreas Hansen         : Spin unrestricted coupled pair/coupled cluster methods
   Benjamin Helmich-Paris : MC-RPA, TRAH-SCF, COSX integrals
   Lee Huntington         : MR-EOM, pCC
   Robert Izsak           : Overlap fitted RIJCOSX, COSX-SCS-MP3, EOM
   Marcus Kettner         : VPT2
   Christian Kollmar      : KDIIS, OOCD, Brueckner-CCSD(T), CCSD density, CASPT2, CASPT2-K
   Simone Kossmann        : Meta GGA functionals, TD-DFT gradient, OOMP2, MP2 Hessian
   Martin Krupicka        : Initial AUTO-CI
   Lucas Lang             : DCDCAS
   Marvin Lechner         : AUTO-CI (C++ implementation), FIC-MRCC
   Dagmar Lenk            : GEPOL surface, SMD
   Dimitrios Liakos       : Extrapolation schemes; Compound Job, initial MDCI parallelization
   Dimitrios Manganas     : Further ROCIS development; embedding schemes
   Dimitrios Pantazis     : SARC Basis sets
   Anastasios Papadopoulos: AUTO-CI, single reference methods and gradients
   Taras Petrenko         : DFT Hessian,TD-DFT gradient, ASA, ECA, R-Raman, ABS, FL, XAS/XES, NRVS
   Peter Pinski           : DLPNO-MP2, DLPNO-MP2 Gradient
   Christoph Reimann      : Effective Core Potentials
   Marius Retegan         : Local ZFS, SOC
   Christoph Riplinger    : Optimizer, TS searches, QM/MM, DLPNO-CCSD(T), (RO)-DLPNO pert. Triples
   Tobias Risthaus        : Range-separated hybrids, TD-DFT gradient, RPA, STAB
   Michael Roemelt        : Original ROCIS implementation
   Masaaki Saitow         : Open-shell DLPNO-CCSD energy and density
   Barbara Sandhoefer     : DKH picture change effects
   Avijit Sen             : IP-ROCIS
   Kantharuban Sivalingam : CASSCF convergence, NEVPT2, FIC-MRCI
   Bernardo de Souza      : ESD, SOC TD-DFT
   Georgi Stoychev        : AutoAux, RI-MP2 NMR, DLPNO-MP2 response
   Willem Van den Heuvel  : Paramagnetic NMR
   Boris Wezisla          : Elementary symmetry handling
   Frank Wennmohs         : Technical directorship


 We gratefully acknowledge several colleagues who have allowed us to
 interface, adapt or use parts of their codes:
   Stefan Grimme, W. Hujo, H. Kruse, P. Pracht,  : VdW corrections, initial TS optimization,
                  C. Bannwarth, S. Ehlert          DFT functionals, gCP, sTDA/sTD-DF
   Ed Valeev, F. Pavosevic, A. Kumar             : LibInt (2-el integral package), F12 methods
   Garnet Chan, S. Sharma, J. Yang, R. Olivares  : DMRG
   Ulf Ekstrom                                   : XCFun DFT Library
   Mihaly Kallay                                 : mrcc  (arbitrary order and MRCC methods)
   Jiri Pittner, Ondrej Demel                    : Mk-CCSD
   Frank Weinhold                                : gennbo (NPA and NBO analysis)
   Christopher J. Cramer and Donald G. Truhlar   : smd solvation model
   Lars Goerigk                                  : TD-DFT with DH, B97 family of functionals
   V. Asgeirsson, H. Jonsson                     : NEB implementation
   FAccTs GmbH                                   : IRC, NEB, NEB-TS, DLPNO-Multilevel, CI-OPT
                                                   MM, QMMM, 2- and 3-layer-ONIOM, Crystal-QMMM,
                                                   LR-CPCM, SF, NACMEs, symmetry and pop. for TD-DFT,
                                                   nearIR, NL-DFT gradient (VV10), updates on ESD,
                                                   ML-optimized integration grids
   S Lehtola, MJT Oliveira, MAL Marques          : LibXC Library
   Liviu Ungur et al                             : ANISO software


 Your calculation uses the libint2 library for the computation of 2-el integrals
 For citations please refer to: http://libint.valeyev.net

 Your ORCA version has been built with support for libXC version: 5.1.0
 For citations please refer to: https://tddft.org/programs/libxc/

 This ORCA versions uses:
   CBLAS   interface :  Fast vector & matrix operations
   LAPACKE interface :  Fast linear algebra routines
   SCALAPACK package :  Parallel linear algebra routines
   Shared memory     :  Shared parallel matrices
   BLAS/LAPACK       :  OpenBLAS 0.3.15  USE64BITINT DYNAMIC_ARCH NO_AFFINITY Haswell SINGLE_THREADED
        Core in use  :  Haswell
   Copyright (c) 2011-2014, The OpenBLAS Project




***************************************
The coordinates will be read from file: H2O.xyz
***************************************



Information: The global flag for chemical shieldings has been found
             ==>> will calculate the chemical shieldings for all atoms in the system

================================================================================

----- Orbital basis set information -----
Your calculation utilizes the basis: pcSseg-2
   F. Jensen, J. Chem. Theory Comput. 11, 132 (2015).

----- AuxJ basis set information -----
Your calculation utilizes the auxiliary basis: def2/J
   F. Weigend, Phys. Chem. Chem. Phys. 8, 1057 (2006).

================================================================================
                                        WARNINGS
                       Please study these warnings very carefully!
================================================================================


INFO   : the flag for use of the SHARK integral package has been found!

================================================================================
                                       INPUT FILE
================================================================================
NAME = H2O.inp
|  1> !PBE RI pcSseg-2 def2/J NMR
|  2> 
|  3> *xyzfile 0 1 H2O.xyz
|  4> 
|  5> 
|  6>                          ****END OF INPUT****
================================================================================

                       ****************************
                       * Single Point Calculation *
                       ****************************

---------------------------------
CARTESIAN COORDINATES (ANGSTROEM)
---------------------------------
  O     -5.362726    1.450539    0.016570
  H     -4.403981    1.466499   -0.027072
  H     -5.638572    1.766322   -0.846998

----------------------------
CARTESIAN COORDINATES (A.U.)
----------------------------
  NO LB      ZA    FRAG     MASS         X           Y           Z
   0 O     8.0000    0    15.999  -10.134084    2.741122    0.031312
   1 H     1.0000    0     1.008   -8.322318    2.771282   -0.051158
   2 H     1.0000    0     1.008  -10.655358    3.337865   -1.600594

--------------------------------
INTERNAL COORDINATES (ANGSTROEM)
--------------------------------
 O      0   0   0     0.000000000000     0.00000000     0.00000000
 H      1   0   0     0.959870493506     0.00000000     0.00000000
 H      1   2   0     0.959978616776   103.92431629     0.00000000

---------------------------
INTERNAL COORDINATES (A.U.)
---------------------------
 O      0   0   0     0.000000000000     0.00000000     0.00000000
 H      1   0   0     1.813892356758     0.00000000     0.00000000
 H      1   2   0     1.814096680128   103.92431629     0.00000000

---------------------
BASIS SET INFORMATION
---------------------
There are 2 groups of distinct atoms

 Group   1 Type O   : 11s7p2d1f contracted to 4s5p2d1f pattern {7211/31111/11/1}
 Group   2 Type H   : 6s3p1d contracted to 3s2p1d pattern {411/21/1}

Atom   0O    basis set group =>   1
Atom   1H    basis set group =>   2
Atom   2H    basis set group =>   2
---------------------------------
AUXILIARY/J BASIS SET INFORMATION
---------------------------------
There are 2 groups of distinct atoms

 Group   1 Type O   : 12s5p4d2f1g contracted to 6s4p3d1f1g pattern {711111/2111/211/2/1}
 Group   2 Type H   : 5s2p1d contracted to 3s1p1d pattern {311/2/1}

Atom   0O    basis set group =>   1
Atom   1H    basis set group =>   2
Atom   2H    basis set group =>   2
------------------------------------------------------------------------------
                           ORCA GTO INTEGRAL CALCULATION
                           -- RI-GTO INTEGRALS CHOSEN --
------------------------------------------------------------------------------
------------------------------------------------------------------------------
                   ___                                                        
                  /   \      - P O W E R E D   B Y -                         
                 /     \                                                     
                 |  |  |   _    _      __       _____    __    __             
                 |  |  |  | |  | |    /  \     |  _  \  |  |  /  |          
                  \  \/   | |  | |   /    \    | | | |  |  | /  /          
                 / \  \   | |__| |  /  /\  \   | |_| |  |  |/  /          
                |  |  |   |  __  | /  /__\  \  |    /   |      \           
                |  |  |   | |  | | |   __   |  |    \   |  |\   \          
                \     /   | |  | | |  |  |  |  | |\  \  |  | \   \       
                 \___/    |_|  |_| |__|  |__|  |_| \__\ |__|  \__/        
                                                                              
                      - O R C A' S   B I G   F R I E N D -                    
                                      &                                       
                       - I N T E G R A L  F E E D E R -                       
                                                                              
 v1 FN, 2020, v2 2021                                                         
------------------------------------------------------------------------------


Reading SHARK input file H2O.SHARKINP.tmp ... ok
----------------------
SHARK INTEGRAL PACKAGE
----------------------

Number of atoms                             ...      3
Number of basis functions                   ...     64
Number of shells                            ...     24
Maximum angular momentum                    ...      3
Integral batch strategy                     ... SHARK/LIBINT Hybrid
RI-J (if used) integral strategy            ... SPLIT-RIJ (Revised 2003 algorithm where possible)
Printlevel                                  ...      1
Contraction scheme used                     ... SEGMENTED contraction
Coulomb Range Separation                    ... NOT USED
Exchange Range Separation                   ... NOT USED
Finite Nucleus Model                        ... NOT USED
Auxiliary Coulomb fitting basis             ... AVAILABLE
   # of basis functions in Aux-J            ...     71
   # of shells in Aux-J                     ...     25
   Maximum angular momentum in Aux-J        ...      4
Auxiliary J/K fitting basis                 ... NOT available
Auxiliary Correlation fitting basis         ... NOT available
Auxiliary 'external' fitting basis          ... NOT available
Integral threshold                          ...     1.000000e-10
Primitive cut-off                           ...     1.000000e-11
Primitive pair pre-selection threshold      ...     1.000000e-11

Calculating pre-screening integrals         ... done (  0.1 sec) Dimension = 24
Organizing shell pair data                  ... done (  0.0 sec)
Shell pair information
Total number of shell pairs                 ...       300
Shell pairs after pre-screening             ...       300
Total number of primitive shell pairs       ...       900
Primitive shell pairs kept                  ...       847
          la=0 lb=0:     55 shell pairs
          la=1 lb=0:     90 shell pairs
          la=1 lb=1:     45 shell pairs
          la=2 lb=0:     40 shell pairs
          la=2 lb=1:     36 shell pairs
          la=2 lb=2:     10 shell pairs
          la=3 lb=0:     10 shell pairs
          la=3 lb=1:      9 shell pairs
          la=3 lb=2:      4 shell pairs
          la=3 lb=3:      1 shell pairs

Calculating one electron integrals          ... done (  0.0 sec)
Calculating RI/J V-Matrix + Cholesky decomp.... done (  0.0 sec)
Calculating Nuclear repulsion               ... done (  0.0 sec) ENN=      9.170279573773 Eh

SHARK setup successfully completed in   0.3 seconds

Maximum memory used throughout the entire GTOINT-calculation: 15.3 MB
-------------------------------------------------------------------------------
                                 ORCA SCF
-------------------------------------------------------------------------------

------------
SCF SETTINGS
------------
Hamiltonian:
 Density Functional     Method          .... DFT(GTOs)
 Exchange Functional    Exchange        .... PBE
   PBE kappa parameter   XKappa         ....  0.804000
   PBE mue parameter    XMuePBE         ....  0.219520
 Correlation Functional Correlation     .... PBE
   PBE beta parameter  CBetaPBE         ....  0.066725
 LDA part of GGA corr.  LDAOpt          .... PW91-LDA
 Gradients option       PostSCFGGA      .... off
   Density functional embedding theory  .... OFF
   NL short-range parameter             ....  6.400000
 RI-approximation to the Coulomb term is turned on
   Number of AuxJ basis functions       .... 71


General Settings:
 Integral files         IntName         .... H2O
 Hartree-Fock type      HFTyp           .... RHF
 Total Charge           Charge          ....    0
 Multiplicity           Mult            ....    1
 Number of Electrons    NEL             ....   10
 Basis Dimension        Dim             ....   64
 Nuclear Repulsion      ENuc            ....      9.1702795738 Eh

Convergence Acceleration:
 DIIS                   CNVDIIS         .... on
   Start iteration      DIISMaxIt       ....    12
   Startup error        DIISStart       ....  0.200000
   # of expansion vecs  DIISMaxEq       ....     5
   Bias factor          DIISBfac        ....   1.050
   Max. coefficient     DIISMaxC        ....  10.000
 Trust-Rad. Augm. Hess. CNVTRAH         .... auto
   Auto Start mean grad. ratio tolernc. ....  1.125000
   Auto Start start iteration           ....    20
   Auto Start num. interpolation iter.  ....    10
   Max. Number of Micro iterations      ....    16
   Max. Number of Macro iterations      .... Maxiter - #DIIS iter
   Number of Davidson start vectors     ....     2
   Converg. threshold I  (grad. norm)   ....   5.000e-05
   Converg. threshold II (energy diff.) ....   1.000e-06
   Grad. Scal. Fac. for Micro threshold ....   0.100
   Minimum threshold for Micro iter.    ....   0.010
   NR start threshold (gradient norm)   ....   0.001
   Initial trust radius                 ....   0.400
   Minimum AH scaling param. (alpha)    ....   1.000
   Maximum AH scaling param. (alpha)    .... 1000.000
   Orbital update algorithm             .... Taylor
   White noise on init. David. guess    .... on
   Maximum white noise                  ....   0.010
   Quad. conv. algorithm                .... NR
 SOSCF                  CNVSOSCF        .... on
   Start iteration      SOSCFMaxIt      ....   150
   Startup grad/error   SOSCFStart      ....  0.003300
 Level Shifting         CNVShift        .... on
   Level shift para.    LevelShift      ....    0.2500
   Turn off err/grad.   ShiftErr        ....    0.0010
 Zerner damping         CNVZerner       .... off
 Static damping         CNVDamp         .... on
   Fraction old density DampFac         ....    0.7000
   Max. Damping (<1)    DampMax         ....    0.9800
   Min. Damping (>=0)   DampMin         ....    0.0000
   Turn off err/grad.   DampErr         ....    0.1000
 Fernandez-Rico         CNVRico         .... off

SCF Procedure:
 Maximum # iterations   MaxIter         ....   125
 SCF integral mode      SCFMode         .... Direct
   Integral package                     .... SHARK and LIBINT hybrid scheme
 Reset frequency        DirectResetFreq ....    20
 Integral Threshold     Thresh          ....  1.000e-10 Eh
 Primitive CutOff       TCut            ....  1.000e-11 Eh

Convergence Tolerance:
 Convergence Check Mode ConvCheckMode   .... Total+1el-Energy
 Convergence forced     ConvForced      .... 0
 Energy Change          TolE            ....  1.000e-06 Eh
 1-El. energy change                    ....  1.000e-03 Eh
 Orbital Gradient       TolG            ....  5.000e-05
 Orbital Rotation angle TolX            ....  5.000e-05
 DIIS Error             TolErr          ....  1.000e-06


Diagonalization of the overlap matrix:
Smallest eigenvalue                        ... 4.180e-03
Time for diagonalization                   ...    0.001 sec
Threshold for overlap eigenvalues          ... 1.000e-08
Number of eigenvalues below threshold      ... 0
Time for construction of square roots      ...    0.000 sec
Total time needed                          ...    0.001 sec

Time for model grid setup =    0.039 sec

------------------------------
INITIAL GUESS: MODEL POTENTIAL
------------------------------
Loading Hartree-Fock densities                     ... done
Calculating cut-offs                               ... done
Initializing the effective Hamiltonian             ... done
Setting up the integral package (SHARK)            ... done
Starting the Coulomb interaction                   ... done (   0.0 sec)
Reading the grid                                   ... done
Mapping shells                                     ... done
Starting the XC term evaluation                    ... done (   0.1 sec)
  promolecular density results
     # of electrons  =      9.999127326
     EX              =     -8.730480517
     EC              =     -0.316193133
     EX+EC           =     -9.046673651
Transforming the Hamiltonian                       ... done (   0.0 sec)
Diagonalizing the Hamiltonian                      ... done (   0.0 sec)
Back transforming the eigenvectors                 ... done (   0.0 sec)
Now organizing SCF variables                       ... done
                      ------------------
                      INITIAL GUESS DONE (   0.1 sec)
                      ------------------
-------------------
DFT GRID GENERATION
-------------------

General Integration Accuracy     IntAcc      ... 4.388
Radial Grid Type                 RadialGrid  ... OptM3 with GC (2021)
Angular Grid (max. ang.)         AngularGrid ... 4 (Lebedev-302)
Angular grid pruning method      GridPruning ... 4 (adaptive)
Weight generation scheme         WeightScheme... Becke
Basis function cutoff            BFCut       ... 1.0000e-10
Integration weight cutoff        WCut        ... 1.0000e-14
Angular grids for H and He will be reduced by one unit
Partially contracted basis set               ... off
Rotationally invariant grid construction     ... off

Total number of grid points                  ...    13068
Total number of batches                      ...      206
Average number of points per batch           ...       63
Average number of grid points per atom       ...     4356
Time for grid setup =    0.163 sec

--------------
SCF ITERATIONS
--------------
ITER       Energy         Delta-E        Max-DP      RMS-DP      [F,P]     Damp
               ***  Starting incremental Fock matrix formation  ***
  0    -76.2859817707   0.000000000000 0.05192400  0.00247897  0.2993785 0.7000
  1    -76.3368097665  -0.050827995764 0.02879062  0.00137062  0.0939219 0.7000
                               ***Turning on DIIS***
  2    -76.3490732394  -0.012263472982 0.02167078  0.00116270  0.0163807 0.0000
  3    -76.3787787854  -0.029705545951 0.01642022  0.00067535  0.0543917 0.0000
  4    -76.3818405345  -0.003061749158 0.00415892  0.00020980  0.0108188 0.0000
                      *** Initiating the SOSCF procedure ***
                           *** Shutting down DIIS ***
                      *** Re-Reading the Fockian *** 
                      *** Removing any level shift *** 
ITER      Energy       Delta-E        Grad      Rot      Max-DP    RMS-DP
  5    -76.38201182  -0.0001712887  0.000865  0.000865  0.000933  0.000056
               *** Restarting incremental Fock matrix formation ***
  6    -76.38201997  -0.0000081467  0.000363  0.001121  0.000847  0.000037
  7    -76.38202038  -0.0000004100  0.000280  0.000215  0.000197  0.000011
  8    -76.38202069  -0.0000003099  0.000137  0.000311  0.000173  0.000010
                 **** Energy Check signals convergence ****
              ***Rediagonalizing the Fockian in SOSCF/NRSCF***

               *****************************************************
               *                     SUCCESS                       *
               *           SCF CONVERGED AFTER   9 CYCLES          *
               *****************************************************


----------------
TOTAL SCF ENERGY
----------------

Total Energy       :          -76.38202082 Eh           -2078.46045 eV

Components:
Nuclear Repulsion  :            9.17027957 Eh             249.53599 eV
Electronic Energy  :          -85.55230040 Eh           -2327.99645 eV
One Electron Energy:         -122.99053996 Eh           -3346.74274 eV
Two Electron Energy:           37.43823956 Eh            1018.74629 eV

Virial components:
Potential Energy   :         -152.56923095 Eh           -4151.61984 eV
Kinetic Energy     :           76.18721013 Eh            2073.15939 eV
Virial Ratio       :            2.00255700


DFT components:
N(Alpha)           :        4.999993432961 electrons
N(Beta)            :        4.999993432961 electrons
N(Total)           :        9.999986865923 electrons
E(X)               :       -8.920234277396 Eh       
E(C)               :       -0.324900542615 Eh       
E(XC)              :       -9.245134820010 Eh       
DFET-embed. en.    :        0.000000000000 Eh       

---------------
SCF CONVERGENCE
---------------

  Last Energy change         ...   -1.3413e-07  Tolerance :   1.0000e-06
  Last MAX-Density change    ...    4.7587e-05  Tolerance :   1.0000e-05
  Last RMS-Density change    ...    2.2282e-06  Tolerance :   1.0000e-06
  Last Orbital Gradient      ...    2.1694e-05  Tolerance :   5.0000e-05
  Last Orbital Rotation      ...    6.0540e-05  Tolerance :   5.0000e-05

             **** THE GBW FILE WAS UPDATED (H2O.gbw) ****
             **** DENSITY H2O.scfp WAS UPDATED ****
             **** ENERGY FILE WAS UPDATED (H2O.en.tmp) ****
             **** THE GBW FILE WAS UPDATED (H2O.gbw) ****
             **** DENSITY H2O.scfp WAS UPDATED ****
----------------
ORBITAL ENERGIES
----------------

  NO   OCC          E(Eh)            E(eV) 
   0   2.0000     -18.748808      -510.1810 
   1   2.0000      -0.927593       -25.2411 
   2   2.0000      -0.480529       -13.0758 
   3   2.0000      -0.339280        -9.2323 
   4   2.0000      -0.261845        -7.1252 
   5   0.0000      -0.015237        -0.4146 
   6   0.0000       0.052008         1.4152 
   7   0.0000       0.248710         6.7677 
   8   0.0000       0.276421         7.5218 
   9   0.0000       0.301770         8.2116 
  10   0.0000       0.311141         8.4666 
  11   0.0000       0.420659        11.4467 
  12   0.0000       0.512911        13.9570 
  13   0.0000       0.662276        18.0215 
  14   0.0000       0.728689        19.8286 
  15   0.0000       0.825188        22.4545 
  16   0.0000       1.001741        27.2588 
  17   0.0000       1.126408        30.6511 
  18   0.0000       1.127608        30.6838 
  19   0.0000       1.362366        37.0719 
  20   0.0000       1.419080        38.6151 
  21   0.0000       1.696371        46.1606 
  22   0.0000       1.745854        47.5071 
  23   0.0000       1.758145        47.8415 
  24   0.0000       1.908093        51.9218 
  25   0.0000       1.937748        52.7288 
  26   0.0000       1.977044        53.7981 
  27   0.0000       2.455262        66.8111 
  28   0.0000       3.212480        87.4160 
  29   0.0000       3.276574        89.1601 
  30   0.0000       3.407614        92.7259 
  31   0.0000       3.508269        95.4649 
  32   0.0000       3.618602        98.4672 
  33   0.0000       3.714493       101.0765 
  34   0.0000       3.754822       102.1739 
  35   0.0000       3.805660       103.5573 
  36   0.0000       3.981675       108.3469 
  37   0.0000       4.031250       109.6959 
  38   0.0000       4.224795       114.9625 
  39   0.0000       4.300168       117.0135 
  40   0.0000       4.423170       120.3606 
  41   0.0000       4.453512       121.1862 
  42   0.0000       4.563776       124.1866 
  43   0.0000       4.710604       128.1820 
  44   0.0000       4.854032       132.0849 
  45   0.0000       4.870728       132.5392 
  46   0.0000       4.947561       134.6300 
  47   0.0000       5.795000       157.6900 
  48   0.0000       5.836859       158.8290 
  49   0.0000       5.949047       161.8818 
  50   0.0000       6.075557       165.3243 
  51   0.0000       6.091624       165.7615 
  52   0.0000       6.197454       168.6413 
  53   0.0000       6.225152       169.3950 
  54   0.0000       6.636144       180.5787 
  55   0.0000       6.681325       181.8081 
  56   0.0000       7.273749       197.9288 
  57   0.0000       7.488821       203.7812 
  58   0.0000       7.874123       214.2658 
  59   0.0000       8.575603       233.3540 
  60   0.0000       9.142379       248.7768 
  61   0.0000      33.063334       899.6991 
  62   0.0000      33.397379       908.7889 
  63   0.0000      33.658171       915.8854 

                    ********************************
                    * MULLIKEN POPULATION ANALYSIS *
                    ********************************

-----------------------
MULLIKEN ATOMIC CHARGES
-----------------------
   0 O :   -0.390340
   1 H :    0.195131
   2 H :    0.195209
Sum of atomic charges:    0.0000000

--------------------------------
MULLIKEN REDUCED ORBITAL CHARGES
--------------------------------
  0 O s       :     3.720823  s :     3.720823
      pz      :     1.477214  p :     4.657195
      px      :     1.315920
      py      :     1.864062
      dz2     :     0.004599  d :     0.011936
      dxz     :     0.001138
      dyz     :     0.002396
      dx2y2   :     0.003044
      dxy     :     0.000758
      f0      :    -0.000016  f :     0.000386
      f+1     :    -0.000036
      f-1     :     0.000103
      f+2     :     0.000049
      f-2     :     0.000035
      f+3     :     0.000169
      f-3     :     0.000082
  1 H s       :     0.700652  s :     0.700652
      pz      :     0.026502  p :     0.096660
      px      :     0.036585
      py      :     0.033572
      dz2     :     0.000742  d :     0.007557
      dxz     :     0.002070
      dyz     :     0.000000
      dx2y2   :     0.002450
      dxy     :     0.002295
  2 H s       :     0.700606  s :     0.700606
      pz      :     0.037241  p :     0.096630
      px      :     0.024389
      py      :     0.035000
      dz2     :     0.002718  d :     0.007555
      dxz     :     0.001703
      dyz     :     0.002131
      dx2y2   :     0.000541
      dxy     :     0.000462


                     *******************************
                     * LOEWDIN POPULATION ANALYSIS *
                     *******************************

----------------------
LOEWDIN ATOMIC CHARGES
----------------------
   0 O :    0.098542
   1 H :   -0.049342
   2 H :   -0.049201

-------------------------------
LOEWDIN REDUCED ORBITAL CHARGES
-------------------------------
  0 O s       :     3.287592  s :     3.287592
      pz      :     1.489790  p :     4.568707
      px      :     1.365762
      py      :     1.713154
      dz2     :     0.015306  d :     0.038291
      dxz     :     0.004419
      dyz     :     0.004607
      dx2y2   :     0.013296
      dxy     :     0.000664
      f0      :     0.001186  f :     0.006868
      f+1     :     0.001980
      f-1     :     0.001095
      f+2     :     0.000418
      f-2     :     0.000343
      f+3     :     0.001574
      f-3     :     0.000272
  1 H s       :     0.674179  s :     0.674179
      pz      :     0.075033  p :     0.308339
      px      :     0.135492
      py      :     0.097813
      dz2     :     0.005600  d :     0.066823
      dxz     :     0.020596
      dyz     :     0.000014
      dx2y2   :     0.016661
      dxy     :     0.023952
  2 H s       :     0.674159  s :     0.674159
      pz      :     0.137488  p :     0.308246
      px      :     0.064625
      py      :     0.106133
      dz2     :     0.023652  d :     0.066796
      dxz     :     0.014559
      dyz     :     0.019851
      dx2y2   :     0.004825
      dxy     :     0.003909


                      *****************************
                      * MAYER POPULATION ANALYSIS *
                      *****************************

  NA   - Mulliken gross atomic population
  ZA   - Total nuclear charge
  QA   - Mulliken gross atomic charge
  VA   - Mayer's total valence
  BVA  - Mayer's bonded valence
  FA   - Mayer's free valence

  ATOM       NA         ZA         QA         VA         BVA        FA
  0 O      8.3903     8.0000    -0.3903     2.0626     2.0626    -0.0000
  1 H      0.8049     1.0000     0.1951     1.0494     1.0494     0.0000
  2 H      0.8048     1.0000     0.1952     1.0493     1.0493    -0.0000

  Mayer bond orders larger than 0.100000
B(  0-O ,  1-H ) :   1.0313 B(  0-O ,  2-H ) :   1.0313 

-------
TIMINGS
-------

Total SCF time: 0 days 0 hours 0 min 1 sec 

Total time                  ....       1.909 sec
Sum of individual times     ....       1.799 sec  ( 94.2%)

Fock matrix formation       ....       1.518 sec  ( 79.5%)
  Split-RI-J                ....       0.184 sec  ( 12.1% of F)
  XC integration            ....       1.276 sec  ( 84.1% of F)
    Basis function eval.    ....       0.497 sec  ( 38.9% of XC)
    Density eval.           ....       0.212 sec  ( 16.6% of XC)
    XC-Functional eval.     ....       0.194 sec  ( 15.2% of XC)
    XC-Potential eval.      ....       0.336 sec  ( 26.3% of XC)
Diagonalization             ....       0.005 sec  (  0.3%)
Density matrix formation    ....       0.000 sec  (  0.0%)
Population analysis         ....       0.001 sec  (  0.1%)
Initial guess               ....       0.069 sec  (  3.6%)
Orbital Transformation      ....       0.000 sec  (  0.0%)
Orbital Orthonormalization  ....       0.000 sec  (  0.0%)
DIIS solution               ....       0.001 sec  (  0.1%)
SOSCF solution              ....       0.001 sec  (  0.1%)
Grid generation             ....       0.202 sec  ( 10.6%)

Maximum memory used throughout the entire SCF-calculation: 11.6 MB

-------------------------   --------------------
FINAL SINGLE POINT ENERGY       -76.382020823868
-------------------------   --------------------


                            ***************************************
                            *     ORCA property calculations      *
                            ***************************************

                                    ---------------------
                                    Active property flags
                                    ---------------------
   (+) Dipole Moment
   (+) Chemical Shifts
   (+) Nuclear properties (Hyperfine,Quadrupole)


------------------------------------------------------------------------------
                       ORCA ELECTRIC PROPERTIES CALCULATION
------------------------------------------------------------------------------

Dipole Moment Calculation                       ... on
Quadrupole Moment Calculation                   ... off
Polarizability Calculation                      ... off
GBWName                                         ... H2O.gbw
Electron density                                ... H2O.scfp
The origin for moment calculation is the CENTER OF MASS  = (-10.061877,  2.776199 -0.064613)

-------------
DIPOLE MOMENT
-------------
                                X             Y             Z
Electronic contribution:     -0.12340      -0.05997       0.16399
Nuclear contribution   :      0.56842       0.27613      -0.75513
                        -----------------------------------------
Total Dipole Moment    :      0.44501       0.21616      -0.59114
                        -----------------------------------------
Magnitude (a.u.)       :      0.77085
Magnitude (Debye)      :      1.95934



--------------------
Rotational spectrum 
--------------------
 
Rotational constants in cm-1:    26.912614    14.629059     9.477380 
Rotational constants in MHz : 806819.873299 438568.146172 284124.698965 

 Dipole components along the rotational axes: 
x,y,z [a.u.] :     0.000167     0.770850     0.000000 
x,y,z [Debye]:     0.000425     1.959345     0.000000 

 
------------------------------------------------------------------------------
                                ORCA EPR/NMR CALCULATION
------------------------------------------------------------------------------

GBWName                      ... H2O.gbw
Electron density             ... H2O.scfp
Spin density                 ... H2O.scfr
Treatment of gauge           ... GIAO (approximations 1/2el = 0,0)
Details of the CP(SCF) procedure:
       Solver   = POPLE   
       MaxIter  =    64   
       Tolerance=    1.000e-03
       Op-0     =   0-  4 =>   5- 63
Multiplicity                 ... 1
g-tensor                     ... 0
NMR chemical shifts          ... 1
NMR spin-spin couplings      ... 0
NMR spectrum                 ... 0
Number of nuclei for epr/nmr ... 3
   Nucleus:   0O 
       Hyperfine : Isotope=   17 I=   2.500 P= -72.357
       Quadrupole: Isotope=   17 I=   2.500 Q=  -0.026
       Spin-Orbit: Zeff=   5.600
       Nuclear Spin-Spin: Gn=   0.000
       EPRNMR Input: 
       rho(0)=N f(grad)=N a(iso)=N a(dip)=N a(orb)=N sigma(nmr)=Y spin-spin(nmr)=all-N,DSO-N,PSO-N,FC-N,SD-N
   Nucleus:   1H 
       Hyperfine : Isotope=    1 I=   0.500 P= 533.552
       Quadrupole: Isotope=    2 I=   1.000 Q=   0.003
       Spin-Orbit: Zeff=   1.000
       Nuclear Spin-Spin: Gn=   0.000
       EPRNMR Input: 
       rho(0)=N f(grad)=N a(iso)=N a(dip)=N a(orb)=N sigma(nmr)=Y spin-spin(nmr)=all-N,DSO-N,PSO-N,FC-N,SD-N
   Nucleus:   2H 
       Hyperfine : Isotope=    1 I=   0.500 P= 533.552
       Quadrupole: Isotope=    2 I=   1.000 Q=   0.003
       Spin-Orbit: Zeff=   1.000
       Nuclear Spin-Spin: Gn=   0.000
       EPRNMR Input: 
       rho(0)=N f(grad)=N a(iso)=N a(dip)=N a(orb)=N sigma(nmr)=Y spin-spin(nmr)=all-N,DSO-N,PSO-N,FC-N,SD-N
Forming RHS of the CP-SCF equations         ... 
Calculating right hand sides for GIAO treatment        ... 
  Entering RightHandSide GIAO. ScalHFX=    0.0000 NeedHFX=0
     -> 1-electron GIAO integrals will be done analytically
     -> RI used in SCF. Same chosen for GIAO calculation.
     Making grid for GIAO integrations   ...

GRID GIAO
---------

General Integration Accuracy     IntAcc      ... 4.388
Radial Grid Type                 RadialGrid  ... OptM3 with GC (2021)
Angular Grid (max. ang.)         AngularGrid ... 4 (Lebedev-302)
Angular grid pruning method      GridPruning ... 4 (adaptive)
Weight generation scheme         WeightScheme... Becke
Basis function cutoff            BFCut       ... 1.0000e-10
Integration weight cutoff        WCut        ... 1.0000e-14
Angular grids for H and He will be reduced by one unit
Partially contracted basis set               ... off
Rotationally invariant grid construction     ... off

Total number of grid points                  ...    13068
Total number of batches                      ...      206
Average number of points per batch           ...       63
Average number of grid points per atom       ...     4356

  One-electron GIAO integrals (SHARK)     ... done
  Calculating G(B)[P]                     ... (RI-J: SHARK-ok) (copy J to G-ok) => dG/dB done
  DFT XC-terms                            ... done
  Extracting occupied and virtual blocks  ... 
  Operator  0  NO=   5 NV=  59 
  Transforming and RHS contribution       ... done
  Adding eps_i * S(B)_ai terms            ... done

  GIAO profiling information: 
    Total GIAO time               ...       1.1 sec
       GIAO 1-electron integrals  ...       0.0 sec (  0.4%)
       GIAO RI-J                  ...       0.1 sec ( 12.1%)
       GIAO XC-terms              ...       0.8 sec ( 73.2%)

  GIAO right hand side done


Forming final perturbed densities           ... done
Transforming perturbed density to AO basis  ... done

Magnetic field perturbation calculated in  1.137 sec

---------------
CHEMICAL SHIFTS
---------------

Note: using conversion factor for au to ppm alpha^2/2 =   26.625677252 
GIAO: Analytic para- and diamagnetic shielding integrals (SHARK)       ...done
 --------------
 Nucleus   0O :
 --------------

Diamagnetic contribution to the shielding tensor (ppm) : 
           391.931         -0.234         5.575
            -1.824        374.779        -4.896
             4.994         -7.292       385.500

Paramagnetic contribution to the shielding tensor (ppm): 
           -44.502         -5.241         9.452
            -3.669        -66.889        -5.447
            10.028         -3.078       -53.116

Total shielding tensor (ppm): 
           347.428         -5.475        15.026
            -5.493        307.890       -10.344
            15.022        -10.370       332.385


 Diagonalized sT*s matrix:
 
 sDSO           372.110          384.412          395.688  iso=     384.070
 sPSO           -68.012          -59.564          -36.931  iso=     -54.836
        ---------------  ---------------  ---------------
 Total          304.098          324.848          358.757  iso=     329.234

 --------------
 Nucleus   1H :
 --------------

Diamagnetic contribution to the shielding tensor (ppm) : 
            43.346          1.833         1.899
            -0.094         31.992         2.239
             0.257          1.996        26.598

Paramagnetic contribution to the shielding tensor (ppm): 
             0.747         -2.548         0.059
             0.085         -7.810        -2.753
            -0.232         -2.508        -1.199

Total shielding tensor (ppm): 
            44.093         -0.715         1.958
            -0.009         24.181        -0.514
             0.025         -0.512        25.399


 Diagonalized sT*s matrix:
 
 sDSO            32.722           25.855           43.359  iso=      33.979
 sPSO            -8.728           -0.325            0.790  iso=      -2.754
        ---------------  ---------------  ---------------
 Total           23.994           25.530           44.149  iso=      31.224

 --------------
 Nucleus   2H :
 --------------

Diamagnetic contribution to the shielding tensor (ppm) : 
            28.253         -2.454         5.073
            -2.229         23.638        -6.330
             6.095         -8.648        37.785

Paramagnetic contribution to the shielding tensor (ppm): 
             0.051          0.527         0.192
            -0.403          2.393         0.721
             1.104          3.039         1.532

Total shielding tensor (ppm): 
            28.304         -1.927         5.265
            -2.632         26.030        -5.609
             7.198         -5.609        39.317


 Diagonalized sT*s matrix:
 
 sDSO            20.475           25.849           43.352  iso=      29.892
 sPSO             3.504           -0.320            0.792  iso=       1.325
        ---------------  ---------------  ---------------
 Total           23.979           25.529           44.144  iso=      31.217



--------------------------------
CHEMICAL SHIELDING SUMMARY (ppm)
--------------------------------


  Nucleus  Element    Isotropic     Anisotropy
  -------  -------  ------------   ------------
      0       O          329.234         44.284 
      1       H           31.224         19.387 
      2       H           31.217         19.390 



Maximum memory used throughout the entire EPRNMR-calculation: 11.6 MB

Timings for individual modules:

Sum of individual times         ...        3.583 sec (=   0.060 min)
GTO integral calculation        ...        0.309 sec (=   0.005 min)   8.6 %
SCF iterations                  ...        1.933 sec (=   0.032 min)  53.9 %
EPR/NMR calculation             ...        1.342 sec (=   0.022 min)  37.4 %
                             ****ORCA TERMINATED NORMALLY****
TOTAL RUN TIME: 0 days 0 hours 0 minutes 3 seconds 767 msec
