
                                 *****************
                                 * O   R   C   A *
                                 *****************

                                            #,                                       
                                            ###                                      
                                            ####                                     
                                            #####                                    
                                            ######                                   
                                           ########,                                 
                                     ,,################,,,,,                         
                               ,,#################################,,                 
                          ,,##########################################,,             
                       ,#########################################, ''#####,          
                    ,#############################################,,   '####,        
                  ,##################################################,,,,####,       
                ,###########''''           ''''###############################       
              ,#####''   ,,,,##########,,,,          '''####'''          '####       
            ,##' ,,,,###########################,,,                        '##       
           ' ,,###''''                  '''############,,,                           
         ,,##''                                '''############,,,,        ,,,,,,###''
      ,#''                                            '''#######################'''  
     '                                                          ''''####''''         
             ,#######,   #######,   ,#######,      ##                                
            ,#'     '#,  ##    ##  ,#'     '#,    #''#        ######   ,####,        
            ##       ##  ##   ,#'  ##            #'  '#       #        #'  '#        
            ##       ##  #######   ##           ,######,      #####,   #    #        
            '#,     ,#'  ##    ##  '#,     ,#' ,#      #,         ##   #,  ,#        
             '#######'   ##     ##  '#######'  #'      '#     #####' # '####'        



                  #######################################################
                  #                        -***-                        #
                  #          Department of theory and spectroscopy      #
                  #    Directorship and core code : Frank Neese         #
                  #        Max Planck Institute fuer Kohlenforschung    #
                  #                Kaiser Wilhelm Platz 1               #
                  #                 D-45470 Muelheim/Ruhr               #
                  #                      Germany                        #
                  #                                                     #
                  #                  All rights reserved                #
                  #                        -***-                        #
                  #######################################################


                         Program Version 5.0.2 -  RELEASE  -


 With contributions from (in alphabetic order):
   Daniel Aravena         : Magnetic Suceptibility
   Michael Atanasov       : Ab Initio Ligand Field Theory (pilot matlab implementation)
   Alexander A. Auer      : GIAO ZORA, VPT2 properties, NMR spectrum
   Ute Becker             : Parallelization
   Giovanni Bistoni       : ED, misc. LED, open-shell LED, HFLD
   Martin Brehm           : Molecular dynamics
   Dmytro Bykov           : SCF Hessian
   Vijay G. Chilkuri      : MRCI spin determinant printing, contributions to CSF-ICE
   Dipayan Datta          : RHF DLPNO-CCSD density
   Achintya Kumar Dutta   : EOM-CC, STEOM-CC
   Dmitry Ganyushin       : Spin-Orbit,Spin-Spin,Magnetic field MRCI
   Miquel Garcia          : C-PCM and meta-GGA Hessian, CC/C-PCM, Gaussian charge scheme
   Yang Guo               : DLPNO-NEVPT2, F12-NEVPT2, CIM, IAO-localization
   Andreas Hansen         : Spin unrestricted coupled pair/coupled cluster methods
   Benjamin Helmich-Paris : MC-RPA, TRAH-SCF, COSX integrals
   Lee Huntington         : MR-EOM, pCC
   Robert Izsak           : Overlap fitted RIJCOSX, COSX-SCS-MP3, EOM
   Marcus Kettner         : VPT2
   Christian Kollmar      : KDIIS, OOCD, Brueckner-CCSD(T), CCSD density, CASPT2, CASPT2-K
   Simone Kossmann        : Meta GGA functionals, TD-DFT gradient, OOMP2, MP2 Hessian
   Martin Krupicka        : Initial AUTO-CI
   Lucas Lang             : DCDCAS
   Marvin Lechner         : AUTO-CI (C++ implementation), FIC-MRCC
   Dagmar Lenk            : GEPOL surface, SMD
   Dimitrios Liakos       : Extrapolation schemes; Compound Job, initial MDCI parallelization
   Dimitrios Manganas     : Further ROCIS development; embedding schemes
   Dimitrios Pantazis     : SARC Basis sets
   Anastasios Papadopoulos: AUTO-CI, single reference methods and gradients
   Taras Petrenko         : DFT Hessian,TD-DFT gradient, ASA, ECA, R-Raman, ABS, FL, XAS/XES, NRVS
   Peter Pinski           : DLPNO-MP2, DLPNO-MP2 Gradient
   Christoph Reimann      : Effective Core Potentials
   Marius Retegan         : Local ZFS, SOC
   Christoph Riplinger    : Optimizer, TS searches, QM/MM, DLPNO-CCSD(T), (RO)-DLPNO pert. Triples
   Tobias Risthaus        : Range-separated hybrids, TD-DFT gradient, RPA, STAB
   Michael Roemelt        : Original ROCIS implementation
   Masaaki Saitow         : Open-shell DLPNO-CCSD energy and density
   Barbara Sandhoefer     : DKH picture change effects
   Avijit Sen             : IP-ROCIS
   Kantharuban Sivalingam : CASSCF convergence, NEVPT2, FIC-MRCI
   Bernardo de Souza      : ESD, SOC TD-DFT
   Georgi Stoychev        : AutoAux, RI-MP2 NMR, DLPNO-MP2 response
   Willem Van den Heuvel  : Paramagnetic NMR
   Boris Wezisla          : Elementary symmetry handling
   Frank Wennmohs         : Technical directorship


 We gratefully acknowledge several colleagues who have allowed us to
 interface, adapt or use parts of their codes:
   Stefan Grimme, W. Hujo, H. Kruse, P. Pracht,  : VdW corrections, initial TS optimization,
                  C. Bannwarth, S. Ehlert          DFT functionals, gCP, sTDA/sTD-DF
   Ed Valeev, F. Pavosevic, A. Kumar             : LibInt (2-el integral package), F12 methods
   Garnet Chan, S. Sharma, J. Yang, R. Olivares  : DMRG
   Ulf Ekstrom                                   : XCFun DFT Library
   Mihaly Kallay                                 : mrcc  (arbitrary order and MRCC methods)
   Jiri Pittner, Ondrej Demel                    : Mk-CCSD
   Frank Weinhold                                : gennbo (NPA and NBO analysis)
   Christopher J. Cramer and Donald G. Truhlar   : smd solvation model
   Lars Goerigk                                  : TD-DFT with DH, B97 family of functionals
   V. Asgeirsson, H. Jonsson                     : NEB implementation
   FAccTs GmbH                                   : IRC, NEB, NEB-TS, DLPNO-Multilevel, CI-OPT
                                                   MM, QMMM, 2- and 3-layer-ONIOM, Crystal-QMMM,
                                                   LR-CPCM, SF, NACMEs, symmetry and pop. for TD-DFT,
                                                   nearIR, NL-DFT gradient (VV10), updates on ESD,
                                                   ML-optimized integration grids
   S Lehtola, MJT Oliveira, MAL Marques          : LibXC Library
   Liviu Ungur et al                             : ANISO software


 Your calculation uses the libint2 library for the computation of 2-el integrals
 For citations please refer to: http://libint.valeyev.net

 Your ORCA version has been built with support for libXC version: 5.1.0
 For citations please refer to: https://tddft.org/programs/libxc/

 This ORCA versions uses:
   CBLAS   interface :  Fast vector & matrix operations
   LAPACKE interface :  Fast linear algebra routines
   SCALAPACK package :  Parallel linear algebra routines
   Shared memory     :  Shared parallel matrices
   BLAS/LAPACK       :  OpenBLAS 0.3.15  USE64BITINT DYNAMIC_ARCH NO_AFFINITY Haswell SINGLE_THREADED
        Core in use  :  Haswell
   Copyright (c) 2011-2014, The OpenBLAS Project




***************************************
The coordinates will be read from file: OPT_C.xyz
***************************************



Information: The global flag for chemical shieldings has been found
             ==>> will calculate the chemical shieldings for all atoms in the system

================================================================================

----- Orbital basis set information -----
Your calculation utilizes the basis: pcSseg-2
   F. Jensen, J. Chem. Theory Comput. 11, 132 (2015).

----- AuxJ basis set information -----
Your calculation utilizes the auxiliary basis: def2/J
   F. Weigend, Phys. Chem. Chem. Phys. 8, 1057 (2006).

================================================================================
                                        WARNINGS
                       Please study these warnings very carefully!
================================================================================


INFO   : the flag for use of the SHARK integral package has been found!

================================================================================
                                       INPUT FILE
================================================================================
NAME = C.inp
|  1> !PBE RI pcSseg-2 def2/J NMR
|  2> 
|  3> *xyzfile 0 1 OPT_C.xyz
|  4> 
|  5> 
|  6>                          ****END OF INPUT****
================================================================================

                       ****************************
                       * Single Point Calculation *
                       ****************************

---------------------------------
CARTESIAN COORDINATES (ANGSTROEM)
---------------------------------
  C     -4.573548   -3.191708   -0.073093
  C     -3.386415   -2.602693   -0.021706
  C     -3.060005   -1.389724    0.789477
  C     -2.618548   -0.214800   -0.079980
  H     -4.749364   -4.062597   -0.689772
  H     -5.416124   -2.827079    0.502095
  H     -2.574778   -3.006906   -0.621450
  H     -2.259632   -1.631402    1.495866
  H     -3.926160   -1.103976    1.390686
  H     -1.737455   -0.467491   -0.671550
  H     -2.366944    0.653271    0.529539
  H     -3.408087    0.077145   -0.772022

----------------------------
CARTESIAN COORDINATES (A.U.)
----------------------------
  NO LB      ZA    FRAG     MASS         X           Y           Z
   0 C     6.0000    0    12.011   -8.642753   -6.031453   -0.138125
   1 C     6.0000    0    12.011   -6.399397   -4.918378   -0.041019
   2 C     6.0000    0    12.011   -5.782571   -2.626198    1.491895
   3 C     6.0000    0    12.011   -4.948339   -0.405912   -0.151140
   4 H     1.0000    0     1.008   -8.974997   -7.677196   -1.303480
   5 H     1.0000    0     1.008  -10.234991   -5.342405    0.948822
   6 H     1.0000    0     1.008   -4.865625   -5.682229   -1.174370
   7 H     1.0000    0     1.008   -4.270086   -3.082903    2.826777
   8 H     1.0000    0     1.008   -7.419367   -2.086213    2.628015
   9 H     1.0000    0     1.008   -3.283314   -0.883430   -1.269046
  10 H     1.0000    0     1.008   -4.472876    1.234503    1.000684
  11 H     1.0000    0     1.008   -6.440352    0.145783   -1.458910

--------------------------------
INTERNAL COORDINATES (ANGSTROEM)
--------------------------------
 C      0   0   0     0.000000000000     0.00000000     0.00000000
 C      1   0   0     1.326221420490     0.00000000     0.00000000
 C      2   1   0     1.495277879519   125.21864530     0.00000000
 C      3   2   1     1.526854922378   112.23571263   241.54826500
 H      1   2   3     1.081504817497   121.68499885   179.29173041
 H      1   2   3     1.083387577606   121.74298469   359.13317476
 H      2   1   3     1.087122765836   118.80180068   181.06251073
 H      3   2   1     1.094527809602   109.30686170   120.45760294
 H      3   2   1     1.092395889428   109.73535109     4.12716300
 H      4   3   2     1.090932400955   111.34984048   300.96224932
 H      4   3   2     1.090121368594   111.16789870   181.08171466
 H      4   3   2     1.089736785986   110.99586278    60.85015957

---------------------------
INTERNAL COORDINATES (A.U.)
---------------------------
 C      0   0   0     0.000000000000     0.00000000     0.00000000
 C      1   0   0     2.506195277667     0.00000000     0.00000000
 C      2   1   0     2.825665686402   125.21864530     0.00000000
 C      3   2   1     2.885337649523   112.23571263   241.54826500
 H      1   2   3     2.043747917586   121.68499885   179.29173041
 H      1   2   3     2.047305818568   121.74298469   359.13317476
 H      2   1   3     2.054364301380   118.80180068   181.06251073
 H      3   2   1     2.068357806108   109.30686170   120.45760294
 H      3   2   1     2.064329060840   109.73535109     4.12716300
 H      4   3   2     2.061563468426   111.34984048   300.96224932
 H      4   3   2     2.060030839379   111.16789870   181.08171466
 H      4   3   2     2.059304083574   110.99586278    60.85015957

---------------------
BASIS SET INFORMATION
---------------------
There are 2 groups of distinct atoms

 Group   1 Type C   : 11s7p2d1f contracted to 4s5p2d1f pattern {7211/31111/11/1}
 Group   2 Type H   : 6s3p1d contracted to 3s2p1d pattern {411/21/1}

Atom   0C    basis set group =>   1
Atom   1C    basis set group =>   1
Atom   2C    basis set group =>   1
Atom   3C    basis set group =>   1
Atom   4H    basis set group =>   2
Atom   5H    basis set group =>   2
Atom   6H    basis set group =>   2
Atom   7H    basis set group =>   2
Atom   8H    basis set group =>   2
Atom   9H    basis set group =>   2
Atom  10H    basis set group =>   2
Atom  11H    basis set group =>   2
---------------------------------
AUXILIARY/J BASIS SET INFORMATION
---------------------------------
There are 2 groups of distinct atoms

 Group   1 Type C   : 12s5p4d2f1g contracted to 6s4p3d1f1g pattern {711111/2111/211/2/1}
 Group   2 Type H   : 5s2p1d contracted to 3s1p1d pattern {311/2/1}

Atom   0C    basis set group =>   1
Atom   1C    basis set group =>   1
Atom   2C    basis set group =>   1
Atom   3C    basis set group =>   1
Atom   4H    basis set group =>   2
Atom   5H    basis set group =>   2
Atom   6H    basis set group =>   2
Atom   7H    basis set group =>   2
Atom   8H    basis set group =>   2
Atom   9H    basis set group =>   2
Atom  10H    basis set group =>   2
Atom  11H    basis set group =>   2
------------------------------------------------------------------------------
                           ORCA GTO INTEGRAL CALCULATION
                           -- RI-GTO INTEGRALS CHOSEN --
------------------------------------------------------------------------------
------------------------------------------------------------------------------
                   ___                                                        
                  /   \      - P O W E R E D   B Y -                         
                 /     \                                                     
                 |  |  |   _    _      __       _____    __    __             
                 |  |  |  | |  | |    /  \     |  _  \  |  |  /  |          
                  \  \/   | |  | |   /    \    | | | |  |  | /  /          
                 / \  \   | |__| |  /  /\  \   | |_| |  |  |/  /          
                |  |  |   |  __  | /  /__\  \  |    /   |      \           
                |  |  |   | |  | | |   __   |  |    \   |  |\   \          
                \     /   | |  | | |  |  |  |  | |\  \  |  | \   \       
                 \___/    |_|  |_| |__|  |__|  |_| \__\ |__|  \__/        
                                                                              
                      - O R C A' S   B I G   F R I E N D -                    
                                      &                                       
                       - I N T E G R A L  F E E D E R -                       
                                                                              
 v1 FN, 2020, v2 2021                                                         
------------------------------------------------------------------------------


Reading SHARK input file C.SHARKINP.tmp ... ok
----------------------
SHARK INTEGRAL PACKAGE
----------------------

Number of atoms                             ...     12
Number of basis functions                   ...    256
Number of shells                            ...     96
Maximum angular momentum                    ...      3
Integral batch strategy                     ... SHARK/LIBINT Hybrid
RI-J (if used) integral strategy            ... SPLIT-RIJ (Revised 2003 algorithm where possible)
Printlevel                                  ...      1
Contraction scheme used                     ... SEGMENTED contraction
Coulomb Range Separation                    ... NOT USED
Exchange Range Separation                   ... NOT USED
Finite Nucleus Model                        ... NOT USED
Auxiliary Coulomb fitting basis             ... AVAILABLE
   # of basis functions in Aux-J            ...    284
   # of shells in Aux-J                     ...    100
   Maximum angular momentum in Aux-J        ...      4
Auxiliary J/K fitting basis                 ... NOT available
Auxiliary Correlation fitting basis         ... NOT available
Auxiliary 'external' fitting basis          ... NOT available
Integral threshold                          ...     1.000000e-10
Primitive cut-off                           ...     1.000000e-11
Primitive pair pre-selection threshold      ...     1.000000e-11

Calculating pre-screening integrals         ... done (  0.1 sec) Dimension = 96
Organizing shell pair data                  ... done (  0.1 sec)
Shell pair information
Total number of shell pairs                 ...      4656
Shell pairs after pre-screening             ...      4437
Total number of primitive shell pairs       ...     13686
Primitive shell pairs kept                  ...     10119
          la=0 lb=0:    805 shell pairs
          la=1 lb=0:   1385 shell pairs
          la=1 lb=1:    614 shell pairs
          la=2 lb=0:    616 shell pairs
          la=2 lb=1:    525 shell pairs
          la=2 lb=2:    125 shell pairs
          la=3 lb=0:    157 shell pairs
          la=3 lb=1:    138 shell pairs
          la=3 lb=2:     62 shell pairs
          la=3 lb=3:     10 shell pairs

Calculating one electron integrals          ... done (  0.0 sec)
Calculating RI/J V-Matrix + Cholesky decomp.... done (  0.0 sec)
Calculating Nuclear repulsion               ... done (  0.0 sec) ENN=    117.562554167792 Eh

SHARK setup successfully completed in   0.3 seconds

Maximum memory used throughout the entire GTOINT-calculation: 60.2 MB
-------------------------------------------------------------------------------
                                 ORCA SCF
-------------------------------------------------------------------------------

------------
SCF SETTINGS
------------
Hamiltonian:
 Density Functional     Method          .... DFT(GTOs)
 Exchange Functional    Exchange        .... PBE
   PBE kappa parameter   XKappa         ....  0.804000
   PBE mue parameter    XMuePBE         ....  0.219520
 Correlation Functional Correlation     .... PBE
   PBE beta parameter  CBetaPBE         ....  0.066725
 LDA part of GGA corr.  LDAOpt          .... PW91-LDA
 Gradients option       PostSCFGGA      .... off
   Density functional embedding theory  .... OFF
   NL short-range parameter             ....  6.400000
 RI-approximation to the Coulomb term is turned on
   Number of AuxJ basis functions       .... 284


General Settings:
 Integral files         IntName         .... C
 Hartree-Fock type      HFTyp           .... RHF
 Total Charge           Charge          ....    0
 Multiplicity           Mult            ....    1
 Number of Electrons    NEL             ....   32
 Basis Dimension        Dim             ....  256
 Nuclear Repulsion      ENuc            ....    117.5625541678 Eh

Convergence Acceleration:
 DIIS                   CNVDIIS         .... on
   Start iteration      DIISMaxIt       ....    12
   Startup error        DIISStart       ....  0.200000
   # of expansion vecs  DIISMaxEq       ....     5
   Bias factor          DIISBfac        ....   1.050
   Max. coefficient     DIISMaxC        ....  10.000
 Trust-Rad. Augm. Hess. CNVTRAH         .... auto
   Auto Start mean grad. ratio tolernc. ....  1.125000
   Auto Start start iteration           ....    20
   Auto Start num. interpolation iter.  ....    10
   Max. Number of Micro iterations      ....    16
   Max. Number of Macro iterations      .... Maxiter - #DIIS iter
   Number of Davidson start vectors     ....     2
   Converg. threshold I  (grad. norm)   ....   5.000e-05
   Converg. threshold II (energy diff.) ....   1.000e-06
   Grad. Scal. Fac. for Micro threshold ....   0.100
   Minimum threshold for Micro iter.    ....   0.010
   NR start threshold (gradient norm)   ....   0.001
   Initial trust radius                 ....   0.400
   Minimum AH scaling param. (alpha)    ....   1.000
   Maximum AH scaling param. (alpha)    .... 1000.000
   Orbital update algorithm             .... Taylor
   White noise on init. David. guess    .... on
   Maximum white noise                  ....   0.010
   Quad. conv. algorithm                .... NR
 SOSCF                  CNVSOSCF        .... on
   Start iteration      SOSCFMaxIt      ....   150
   Startup grad/error   SOSCFStart      ....  0.003300
 Level Shifting         CNVShift        .... on
   Level shift para.    LevelShift      ....    0.2500
   Turn off err/grad.   ShiftErr        ....    0.0010
 Zerner damping         CNVZerner       .... off
 Static damping         CNVDamp         .... on
   Fraction old density DampFac         ....    0.7000
   Max. Damping (<1)    DampMax         ....    0.9800
   Min. Damping (>=0)   DampMin         ....    0.0000
   Turn off err/grad.   DampErr         ....    0.1000
 Fernandez-Rico         CNVRico         .... off

SCF Procedure:
 Maximum # iterations   MaxIter         ....   125
 SCF integral mode      SCFMode         .... Direct
   Integral package                     .... SHARK and LIBINT hybrid scheme
 Reset frequency        DirectResetFreq ....    20
 Integral Threshold     Thresh          ....  1.000e-10 Eh
 Primitive CutOff       TCut            ....  1.000e-11 Eh

Convergence Tolerance:
 Convergence Check Mode ConvCheckMode   .... Total+1el-Energy
 Convergence forced     ConvForced      .... 0
 Energy Change          TolE            ....  1.000e-06 Eh
 1-El. energy change                    ....  1.000e-03 Eh
 Orbital Gradient       TolG            ....  5.000e-05
 Orbital Rotation angle TolX            ....  5.000e-05
 DIIS Error             TolErr          ....  1.000e-06


Diagonalization of the overlap matrix:
Smallest eigenvalue                        ... 2.642e-04
Time for diagonalization                   ...    0.012 sec
Threshold for overlap eigenvalues          ... 1.000e-08
Number of eigenvalues below threshold      ... 0
Time for construction of square roots      ...    0.004 sec
Total time needed                          ...    0.016 sec

Time for model grid setup =    0.202 sec

------------------------------
INITIAL GUESS: MODEL POTENTIAL
------------------------------
Loading Hartree-Fock densities                     ... done
Calculating cut-offs                               ... done
Initializing the effective Hamiltonian             ... done
Setting up the integral package (SHARK)            ... done
Starting the Coulomb interaction                   ... done (   0.2 sec)
Reading the grid                                   ... done
Mapping shells                                     ... done
Starting the XC term evaluation                    ... done (   0.4 sec)
  promolecular density results
     # of electrons  =     31.995022294
     EX              =    -22.782225292
     EC              =     -1.013003315
     EX+EC           =    -23.795228607
Transforming the Hamiltonian                       ... done (   0.0 sec)
Diagonalizing the Hamiltonian                      ... done (   0.0 sec)
Back transforming the eigenvectors                 ... done (   0.0 sec)
Now organizing SCF variables                       ... done
                      ------------------
                      INITIAL GUESS DONE (   0.8 sec)
                      ------------------
-------------------
DFT GRID GENERATION
-------------------

General Integration Accuracy     IntAcc      ... 4.388
Radial Grid Type                 RadialGrid  ... OptM3 with GC (2021)
Angular Grid (max. ang.)         AngularGrid ... 4 (Lebedev-302)
Angular grid pruning method      GridPruning ... 4 (adaptive)
Weight generation scheme         WeightScheme... Becke
Basis function cutoff            BFCut       ... 1.0000e-10
Integration weight cutoff        WCut        ... 1.0000e-14
Angular grids for H and He will be reduced by one unit
Partially contracted basis set               ... off
Rotationally invariant grid construction     ... off

Total number of grid points                  ...    50122
Total number of batches                      ...      788
Average number of points per batch           ...       63
Average number of grid points per atom       ...     4177
Time for grid setup =    0.777 sec

--------------
SCF ITERATIONS
--------------
ITER       Energy         Delta-E        Max-DP      RMS-DP      [F,P]     Damp
               ***  Starting incremental Fock matrix formation  ***
  0   -156.8988358319   0.000000000000 0.02959207  0.00082092  0.1691585 0.7000
  1   -156.9743527512  -0.075516919240 0.01969493  0.00056274  0.0756911 0.7000
                               ***Turning on DIIS***
  2   -157.0011616027  -0.026808851593 0.02694921  0.00084332  0.0242532 0.0000
  3   -157.0366403497  -0.035478746955 0.01427986  0.00037935  0.0488019 0.0000
  4   -157.0506063318  -0.013965982067 0.00486268  0.00012329  0.0141310 0.0000
  5   -157.0515484695  -0.000942137777 0.00181589  0.00005533  0.0034040 0.0000
                      *** Initiating the SOSCF procedure ***
                           *** Shutting down DIIS ***
                      *** Re-Reading the Fockian *** 
                      *** Removing any level shift *** 
ITER      Energy       Delta-E        Grad      Rot      Max-DP    RMS-DP
  6   -157.05162909  -0.0000806210  0.000342  0.000342  0.000780  0.000026
               *** Restarting incremental Fock matrix formation ***
  7   -157.05163700  -0.0000079097  0.000111  0.000465  0.000523  0.000021
  8   -157.05163744  -0.0000004408  0.000099  0.000224  0.000163  0.000006
  9   -157.05163763  -0.0000001915  0.000093  0.000192  0.000144  0.000005
                 **** Energy Check signals convergence ****
              ***Rediagonalizing the Fockian in SOSCF/NRSCF***

               *****************************************************
               *                     SUCCESS                       *
               *           SCF CONVERGED AFTER  10 CYCLES          *
               *****************************************************


----------------
TOTAL SCF ENERGY
----------------

Total Energy       :         -157.05163769 Eh           -4273.59233 eV

Components:
Nuclear Repulsion  :          117.56255417 Eh            3199.03973 eV
Electronic Energy  :         -274.61419185 Eh           -7472.63206 eV
One Electron Energy:         -442.43063835 Eh          -12039.14973 eV
Two Electron Energy:          167.81644650 Eh            4566.51767 eV

Virial components:
Potential Energy   :         -313.55737066 Eh           -8532.32983 eV
Kinetic Energy     :          156.50573297 Eh            4258.73750 eV
Virial Ratio       :            2.00348808


DFT components:
N(Alpha)           :       16.000020865749 electrons
N(Beta)            :       16.000020865749 electrons
N(Total)           :       32.000041731498 electrons
E(X)               :      -23.443900491968 Eh       
E(C)               :       -1.016231888849 Eh       
E(XC)              :      -24.460132380816 Eh       
DFET-embed. en.    :        0.000000000000 Eh       

---------------
SCF CONVERGENCE
---------------

  Last Energy change         ...   -5.3001e-08  Tolerance :   1.0000e-06
  Last MAX-Density change    ...    1.1191e-04  Tolerance :   1.0000e-05
  Last RMS-Density change    ...    2.1854e-06  Tolerance :   1.0000e-06
  Last Orbital Gradient      ...    8.3974e-05  Tolerance :   5.0000e-05
  Last Orbital Rotation      ...    1.6563e-04  Tolerance :   5.0000e-05

             **** THE GBW FILE WAS UPDATED (C.gbw) ****
             **** DENSITY C.scfp WAS UPDATED ****
             **** ENERGY FILE WAS UPDATED (C.en.tmp) ****
             **** THE GBW FILE WAS UPDATED (C.gbw) ****
             **** DENSITY C.scfp WAS UPDATED ****
----------------
ORBITAL ENERGIES
----------------

  NO   OCC          E(Eh)            E(eV) 
   0   2.0000      -9.883336      -268.9392 
   1   2.0000      -9.883113      -268.9332 
   2   2.0000      -9.872081      -268.6330 
   3   2.0000      -9.869714      -268.5686 
   4   2.0000      -0.728509       -19.8237 
   5   2.0000      -0.659558       -17.9475 
   6   2.0000      -0.565179       -15.3793 
   7   2.0000      -0.496978       -13.5234 
   8   2.0000      -0.422962       -11.5094 
   9   2.0000      -0.396079       -10.7779 
  10   2.0000      -0.379188       -10.3182 
  11   2.0000      -0.338712        -9.2168 
  12   2.0000      -0.332071        -9.0361 
  13   2.0000      -0.299646        -8.1538 
  14   2.0000      -0.292691        -7.9645 
  15   2.0000      -0.230849        -6.2817 
  16   0.0000      -0.026708        -0.7268 
  17   0.0000       0.007100         0.1932 
  18   0.0000       0.026415         0.7188 
  19   0.0000       0.030397         0.8272 
  20   0.0000       0.042469         1.1556 
  21   0.0000       0.067916         1.8481 
  22   0.0000       0.075215         2.0467 
  23   0.0000       0.080291         2.1848 
  24   0.0000       0.095439         2.5970 
  25   0.0000       0.115012         3.1296 
  26   0.0000       0.139687         3.8011 
  27   0.0000       0.148813         4.0494 
  28   0.0000       0.165042         4.4910 
  29   0.0000       0.179429         4.8825 
  30   0.0000       0.194345         5.2884 
  31   0.0000       0.211039         5.7427 
  32   0.0000       0.217081         5.9071 
  33   0.0000       0.231311         6.2943 
  34   0.0000       0.260564         7.0903 
  35   0.0000       0.273470         7.4415 
  36   0.0000       0.299045         8.1374 
  37   0.0000       0.308420         8.3925 
  38   0.0000       0.313463         8.5298 
  39   0.0000       0.315975         8.5981 
  40   0.0000       0.319916         8.7053 
  41   0.0000       0.325851         8.8669 
  42   0.0000       0.332146         9.0381 
  43   0.0000       0.342798         9.3280 
  44   0.0000       0.358213         9.7475 
  45   0.0000       0.371721        10.1150 
  46   0.0000       0.388983        10.5848 
  47   0.0000       0.442122        12.0308 
  48   0.0000       0.495562        13.4849 
  49   0.0000       0.503390        13.6979 
  50   0.0000       0.528961        14.3938 
  51   0.0000       0.553750        15.0683 
  52   0.0000       0.608310        16.5530 
  53   0.0000       0.668871        18.2009 
  54   0.0000       0.686771        18.6880 
  55   0.0000       0.732834        19.9414 
  56   0.0000       0.782473        21.2922 
  57   0.0000       0.797389        21.6981 
  58   0.0000       0.818966        22.2852 
  59   0.0000       0.848275        23.0827 
  60   0.0000       0.875784        23.8313 
  61   0.0000       0.899425        24.4746 
  62   0.0000       0.923757        25.1367 
  63   0.0000       0.944381        25.6979 
  64   0.0000       0.949789        25.8451 
  65   0.0000       0.956369        26.0241 
  66   0.0000       0.979187        26.6450 
  67   0.0000       0.990036        26.9403 
  68   0.0000       1.006153        27.3788 
  69   0.0000       1.033300        28.1175 
  70   0.0000       1.044483        28.4218 
  71   0.0000       1.059870        28.8405 
  72   0.0000       1.069626        29.1060 
  73   0.0000       1.077860        29.3301 
  74   0.0000       1.097910        29.8757 
  75   0.0000       1.106647        30.1134 
  76   0.0000       1.138209        30.9722 
  77   0.0000       1.147713        31.2309 
  78   0.0000       1.164250        31.6809 
  79   0.0000       1.194532        32.5049 
  80   0.0000       1.206456        32.8293 
  81   0.0000       1.236567        33.6487 
  82   0.0000       1.239944        33.7406 
  83   0.0000       1.284761        34.9601 
  84   0.0000       1.307459        35.5778 
  85   0.0000       1.313716        35.7480 
  86   0.0000       1.330950        36.2170 
  87   0.0000       1.384137        37.6643 
  88   0.0000       1.422288        38.7024 
  89   0.0000       1.443939        39.2916 
  90   0.0000       1.501646        40.8619 
  91   0.0000       1.518257        41.3139 
  92   0.0000       1.531654        41.6784 
  93   0.0000       1.550703        42.1968 
  94   0.0000       1.569389        42.7052 
  95   0.0000       1.590052        43.2675 
  96   0.0000       1.613193        43.8972 
  97   0.0000       1.644626        44.7526 
  98   0.0000       1.671627        45.4873 
  99   0.0000       1.703604        46.3574 
 100   0.0000       1.709332        46.5133 
 101   0.0000       1.759467        47.8775 
 102   0.0000       1.828719        49.7620 
 103   0.0000       1.839399        50.0526 
 104   0.0000       1.898085        51.6495 
 105   0.0000       1.908732        51.9392 
 106   0.0000       1.945409        52.9373 
 107   0.0000       2.011870        54.7458 
 108   0.0000       2.112194        57.4757 
 109   0.0000       2.188613        59.5552 
 110   0.0000       2.201365        59.9022 
 111   0.0000       2.283988        62.1505 
 112   0.0000       2.351156        63.9782 
 113   0.0000       2.388657        64.9987 
 114   0.0000       2.500549        68.0434 
 115   0.0000       2.532006        68.8994 
 116   0.0000       2.603327        70.8401 
 117   0.0000       2.689650        73.1891 
 118   0.0000       2.930426        79.7409 
 119   0.0000       2.957868        80.4877 
 120   0.0000       3.043163        82.8087 
 121   0.0000       3.065408        83.4140 
 122   0.0000       3.094673        84.2103 
 123   0.0000       3.108571        84.5885 
 124   0.0000       3.170581        86.2759 
 125   0.0000       3.196662        86.9856 
 126   0.0000       3.223527        87.7166 
 127   0.0000       3.269788        88.9755 
 128   0.0000       3.274503        89.1038 
 129   0.0000       3.302312        89.8605 
 130   0.0000       3.341708        90.9325 
 131   0.0000       3.367479        91.6338 
 132   0.0000       3.381366        92.0117 
 133   0.0000       3.437871        93.5492 
 134   0.0000       3.466887        94.3388 
 135   0.0000       3.514711        95.6402 
 136   0.0000       3.564496        96.9949 
 137   0.0000       3.587184        97.6122 
 138   0.0000       3.605020        98.0976 
 139   0.0000       3.658799        99.5610 
 140   0.0000       3.702867       100.7601 
 141   0.0000       3.726623       101.4066 
 142   0.0000       3.736246       101.6684 
 143   0.0000       3.770766       102.6078 
 144   0.0000       3.803130       103.4884 
 145   0.0000       3.809725       103.6679 
 146   0.0000       3.837396       104.4209 
 147   0.0000       3.864699       105.1638 
 148   0.0000       3.894959       105.9872 
 149   0.0000       3.927975       106.8856 
 150   0.0000       3.939211       107.1914 
 151   0.0000       3.955763       107.6418 
 152   0.0000       3.970865       108.0527 
 153   0.0000       3.993350       108.6646 
 154   0.0000       4.031285       109.6968 
 155   0.0000       4.054178       110.3198 
 156   0.0000       4.079826       111.0177 
 157   0.0000       4.128442       112.3406 
 158   0.0000       4.146942       112.8440 
 159   0.0000       4.172248       113.5326 
 160   0.0000       4.189627       114.0055 
 161   0.0000       4.205711       114.4432 
 162   0.0000       4.214213       114.6746 
 163   0.0000       4.218256       114.7846 
 164   0.0000       4.258430       115.8778 
 165   0.0000       4.261989       115.9746 
 166   0.0000       4.272051       116.2484 
 167   0.0000       4.292728       116.8111 
 168   0.0000       4.304780       117.1390 
 169   0.0000       4.332296       117.8878 
 170   0.0000       4.357761       118.5807 
 171   0.0000       4.376429       119.0887 
 172   0.0000       4.390862       119.4814 
 173   0.0000       4.404416       119.8503 
 174   0.0000       4.413077       120.0859 
 175   0.0000       4.425051       120.4118 
 176   0.0000       4.436737       120.7297 
 177   0.0000       4.449732       121.0834 
 178   0.0000       4.478264       121.8598 
 179   0.0000       4.512902       122.8023 
 180   0.0000       4.520006       122.9956 
 181   0.0000       4.523267       123.0844 
 182   0.0000       4.547964       123.7564 
 183   0.0000       4.572828       124.4330 
 184   0.0000       4.589813       124.8952 
 185   0.0000       4.612347       125.5083 
 186   0.0000       4.616334       125.6168 
 187   0.0000       4.629068       125.9633 
 188   0.0000       4.651965       126.5864 
 189   0.0000       4.666954       126.9943 
 190   0.0000       4.690728       127.6412 
 191   0.0000       4.702224       127.9540 
 192   0.0000       4.706462       128.0693 
 193   0.0000       4.731650       128.7547 
 194   0.0000       4.763402       129.6188 
 195   0.0000       4.793636       130.4415 
 196   0.0000       4.848145       131.9247 
 197   0.0000       4.866416       132.4219 
 198   0.0000       4.900424       133.3473 
 199   0.0000       4.949199       134.6746 
 200   0.0000       4.955342       134.8417 
 201   0.0000       4.981075       135.5419 
 202   0.0000       5.052875       137.4957 
 203   0.0000       5.057016       137.6084 
 204   0.0000       5.135754       139.7510 
 205   0.0000       5.202737       141.5737 
 206   0.0000       5.263363       143.2234 
 207   0.0000       5.323800       144.8680 
 208   0.0000       5.366445       146.0284 
 209   0.0000       5.382643       146.4692 
 210   0.0000       5.455000       148.4381 
 211   0.0000       5.497954       149.6069 
 212   0.0000       5.504632       149.7886 
 213   0.0000       5.529966       150.4780 
 214   0.0000       5.540290       150.7590 
 215   0.0000       5.555443       151.1713 
 216   0.0000       5.572137       151.6256 
 217   0.0000       5.587200       152.0354 
 218   0.0000       5.621955       152.9812 
 219   0.0000       5.641929       153.5247 
 220   0.0000       5.678363       154.5161 
 221   0.0000       5.702570       155.1748 
 222   0.0000       5.726301       155.8206 
 223   0.0000       5.751426       156.5043 
 224   0.0000       5.795313       157.6985 
 225   0.0000       5.810032       158.0990 
 226   0.0000       5.831931       158.6949 
 227   0.0000       5.873468       159.8252 
 228   0.0000       5.910438       160.8312 
 229   0.0000       5.936956       161.5528 
 230   0.0000       6.041666       164.4021 
 231   0.0000       6.077590       165.3796 
 232   0.0000       6.102119       166.0471 
 233   0.0000       6.233014       169.6089 
 234   0.0000       6.342420       172.5860 
 235   0.0000       6.462728       175.8598 
 236   0.0000       6.629673       180.4026 
 237   0.0000       6.752409       183.7424 
 238   0.0000       6.756702       183.8592 
 239   0.0000       6.787276       184.6912 
 240   0.0000       6.839103       186.1015 
 241   0.0000       6.876206       187.1111 
 242   0.0000       7.056718       192.0231 
 243   0.0000       7.583712       206.3633 
 244   0.0000      18.376339       500.0456 
 245   0.0000      18.526093       504.1206 
 246   0.0000      18.601821       506.1813 
 247   0.0000      18.646289       507.3913 
 248   0.0000      18.779553       511.0176 
 249   0.0000      18.812363       511.9104 
 250   0.0000      18.871289       513.5139 
 251   0.0000      18.922605       514.9102 
 252   0.0000      18.990332       516.7532 
 253   0.0000      19.230098       523.2776 
 254   0.0000      19.382892       527.4353 
 255   0.0000      19.731127       536.9113 

                    ********************************
                    * MULLIKEN POPULATION ANALYSIS *
                    ********************************

-----------------------
MULLIKEN ATOMIC CHARGES
-----------------------
   0 C :   -0.116179
   1 C :   -0.093854
   2 C :    0.013344
   3 C :   -0.094119
   4 H :    0.053612
   5 H :    0.038991
   6 H :    0.033385
   7 H :    0.039347
   8 H :    0.018900
   9 H :    0.028944
  10 H :    0.039856
  11 H :    0.037774
Sum of atomic charges:    0.0000000

--------------------------------
MULLIKEN REDUCED ORBITAL CHARGES
--------------------------------
  0 C s       :     3.134703  s :     3.134703
      pz      :     1.000144  p :     2.941432
      px      :     0.954719
      py      :     0.986569
      dz2     :     0.002022  d :     0.037380
      dxz     :     0.010766
      dyz     :     0.003240
      dx2y2   :     0.011318
      dxy     :     0.010034
      f0      :     0.000429  f :     0.002664
      f+1     :     0.000216
      f-1     :     0.000183
      f+2     :     0.000284
      f-2     :     0.000431
      f+3     :     0.000797
      f-3     :     0.000324
  1 C s       :     3.158128  s :     3.158128
      pz      :     0.947834  p :     2.862494
      px      :     0.967583
      py      :     0.947077
      dz2     :     0.006776  d :     0.069174
      dxz     :     0.017473
      dyz     :     0.008934
      dx2y2   :     0.018946
      dxy     :     0.017045
      f0      :     0.000544  f :     0.004058
      f+1     :     0.000267
      f-1     :     0.000551
      f+2     :     0.000567
      f-2     :     0.000678
      f+3     :     0.000953
      f-3     :     0.000498
  2 C s       :     3.016537  s :     3.016537
      pz      :     0.944154  p :     2.898499
      px      :     1.024591
      py      :     0.929755
      dz2     :     0.008783  d :     0.069079
      dxz     :     0.014667
      dyz     :     0.019837
      dx2y2   :     0.014226
      dxy     :     0.011566
      f0      :     0.000181  f :     0.002541
      f+1     :     0.000083
      f-1     :     0.000712
      f+2     :     0.000398
      f-2     :     0.000459
      f+3     :     0.000359
      f-3     :     0.000349
  3 C s       :     3.088444  s :     3.088444
      pz      :     0.990224  p :     2.964600
      px      :     1.008824
      py      :     0.965552
      dz2     :     0.004295  d :     0.039920
      dxz     :     0.010222
      dyz     :     0.010441
      dx2y2   :     0.008433
      dxy     :     0.006530
      f0      :     0.000093  f :     0.001156
      f+1     :     0.000035
      f-1     :     0.000329
      f+2     :     0.000170
      f-2     :     0.000214
      f+3     :     0.000165
      f-3     :     0.000151
  4 H s       :     0.902448  s :     0.902448
      pz      :     0.014905  p :     0.041861
      px      :     0.008031
      py      :     0.018924
      dz2     :     0.000334  d :     0.002079
      dxz     :     0.000219
      dyz     :     0.000706
      dx2y2   :     0.000470
      dxy     :     0.000350
  5 H s       :     0.916566  s :     0.916566
      pz      :     0.014164  p :     0.042334
      px      :     0.017497
      py      :     0.010673
      dz2     :     0.000311  d :     0.002110
      dxz     :     0.000650
      dyz     :     0.000257
      dx2y2   :     0.000434
      dxy     :     0.000458
  6 H s       :     0.922507  s :     0.922507
      pz      :     0.014579  p :     0.041915
      px      :     0.016023
      py      :     0.011313
      dz2     :     0.000326  d :     0.002193
      dxz     :     0.000640
      dyz     :     0.000297
      dx2y2   :     0.000452
      dxy     :     0.000478
  7 H s       :     0.916001  s :     0.916001
      pz      :     0.015813  p :     0.042356
      px      :     0.017462
      py      :     0.009082
      dz2     :     0.000410  d :     0.002296
      dxz     :     0.000740
      dyz     :     0.000320
      dx2y2   :     0.000439
      dxy     :     0.000386
  8 H s       :     0.935574  s :     0.935574
      pz      :     0.014573  p :     0.043173
      px      :     0.019164
      py      :     0.009436
      dz2     :     0.000340  d :     0.002353
      dxz     :     0.000741
      dyz     :     0.000274
      dx2y2   :     0.000511
      dxy     :     0.000486
  9 H s       :     0.925617  s :     0.925617
      pz      :     0.014385  p :     0.043170
      px      :     0.019148
      py      :     0.009637
      dz2     :     0.000317  d :     0.002268
      dxz     :     0.000738
      dyz     :     0.000279
      dx2y2   :     0.000515
      dxy     :     0.000418
 10 H s       :     0.915488  s :     0.915488
      pz      :     0.012855  p :     0.042409
      px      :     0.010594
      py      :     0.018961
      dz2     :     0.000354  d :     0.002246
      dxz     :     0.000319
      dyz     :     0.000710
      dx2y2   :     0.000459
      dxy     :     0.000404
 11 H s       :     0.918068  s :     0.918068
      pz      :     0.015712  p :     0.041912
      px      :     0.016179
      py      :     0.010021
      dz2     :     0.000389  d :     0.002246
      dxz     :     0.000728
      dyz     :     0.000344
      dx2y2   :     0.000403
      dxy     :     0.000383


                     *******************************
                     * LOEWDIN POPULATION ANALYSIS *
                     *******************************

----------------------
LOEWDIN ATOMIC CHARGES
----------------------
   0 C :   -0.049608
   1 C :   -0.039271
   2 C :   -0.064661
   3 C :   -0.057326
   4 H :    0.019597
   5 H :    0.018494
   6 H :    0.026107
   7 H :    0.032919
   8 H :    0.030128
   9 H :    0.027369
  10 H :    0.027113
  11 H :    0.029137

-------------------------------
LOEWDIN REDUCED ORBITAL CHARGES
-------------------------------
  0 C s       :     2.806274  s :     2.806274
      pz      :     0.983946  p :     3.051457
      px      :     1.055022
      py      :     1.012489
      dz2     :     0.009569  d :     0.176195
      dxz     :     0.045697
      dyz     :     0.022011
      dx2y2   :     0.054112
      dxy     :     0.044807
      f0      :     0.002362  f :     0.015683
      f+1     :     0.001429
      f-1     :     0.000712
      f+2     :     0.002093
      f-2     :     0.002220
      f+3     :     0.003869
      f-3     :     0.002997
  1 C s       :     2.800870  s :     2.800870
      pz      :     0.936042  p :     2.975566
      px      :     1.071943
      py      :     0.967581
      dz2     :     0.022598  d :     0.242300
      dxz     :     0.061166
      dyz     :     0.030837
      dx2y2   :     0.064623
      dxy     :     0.063076
      f0      :     0.002467  f :     0.020535
      f+1     :     0.001636
      f-1     :     0.002266
      f+2     :     0.002286
      f-2     :     0.003448
      f+3     :     0.004776
      f-3     :     0.003657
  2 C s       :     2.749476  s :     2.749476
      pz      :     1.013776  p :     3.049323
      px      :     1.053333
      py      :     0.982215
      dz2     :     0.023821  d :     0.244763
      dxz     :     0.069525
      dyz     :     0.060009
      dx2y2   :     0.052322
      dxy     :     0.039086
      f0      :     0.003105  f :     0.021099
      f+1     :     0.001947
      f-1     :     0.004004
      f+2     :     0.003116
      f-2     :     0.002775
      f+3     :     0.002953
      f-3     :     0.003198
  3 C s       :     2.753633  s :     2.753633
      pz      :     1.035916  p :     3.099697
      px      :     1.058768
      py      :     1.005013
      dz2     :     0.012695  d :     0.187507
      dxz     :     0.057435
      dyz     :     0.050283
      dx2y2   :     0.040541
      dxy     :     0.026554
      f0      :     0.003077  f :     0.016489
      f+1     :     0.001573
      f-1     :     0.002363
      f+2     :     0.002678
      f-2     :     0.001871
      f+3     :     0.002339
      f-3     :     0.002589
  4 H s       :     0.833983  s :     0.833983
      pz      :     0.044570  p :     0.127906
      px      :     0.029433
      py      :     0.053903
      dz2     :     0.003494  d :     0.018514
      dxz     :     0.002121
      dyz     :     0.005225
      dx2y2   :     0.003743
      dxy     :     0.003931
  5 H s       :     0.835943  s :     0.835943
      pz      :     0.042938  p :     0.127057
      px      :     0.048982
      py      :     0.035137
      dz2     :     0.003255  d :     0.018506
      dxz     :     0.004828
      dyz     :     0.002274
      dx2y2   :     0.004179
      dxy     :     0.003970
  6 H s       :     0.827294  s :     0.827294
      pz      :     0.043397  p :     0.128074
      px      :     0.048787
      py      :     0.035890
      dz2     :     0.003200  d :     0.018524
      dxz     :     0.004766
      dyz     :     0.002639
      dx2y2   :     0.003987
      dxy     :     0.003932
  7 H s       :     0.818376  s :     0.818376
      pz      :     0.046264  p :     0.129762
      px      :     0.048419
      py      :     0.035078
      dz2     :     0.004319  d :     0.018943
      dxz     :     0.005049
      dyz     :     0.002981
      dx2y2   :     0.003294
      dxy     :     0.003300
  8 H s       :     0.824103  s :     0.824103
      pz      :     0.041918  p :     0.126604
      px      :     0.051171
      py      :     0.033515
      dz2     :     0.003587  d :     0.019165
      dxz     :     0.005254
      dyz     :     0.002405
      dx2y2   :     0.003955
      dxy     :     0.003964
  9 H s       :     0.827867  s :     0.827867
      pz      :     0.041804  p :     0.125930
      px      :     0.050823
      py      :     0.033303
      dz2     :     0.003583  d :     0.018834
      dxz     :     0.005097
      dyz     :     0.002272
      dx2y2   :     0.004070
      dxy     :     0.003811
 10 H s       :     0.827603  s :     0.827603
      pz      :     0.040574  p :     0.126444
      px      :     0.034672
      py      :     0.051198
      dz2     :     0.003618  d :     0.018839
      dxz     :     0.002502
      dyz     :     0.004831
      dx2y2   :     0.003869
      dxy     :     0.004019
 11 H s       :     0.826314  s :     0.826314
      pz      :     0.045060  p :     0.125600
      px      :     0.046809
      py      :     0.033732
      dz2     :     0.004303  d :     0.018948
      dxz     :     0.004797
      dyz     :     0.003049
      dx2y2   :     0.003268
      dxy     :     0.003531


                      *****************************
                      * MAYER POPULATION ANALYSIS *
                      *****************************

  NA   - Mulliken gross atomic population
  ZA   - Total nuclear charge
  QA   - Mulliken gross atomic charge
  VA   - Mayer's total valence
  BVA  - Mayer's bonded valence
  FA   - Mayer's free valence

  ATOM       NA         ZA         QA         VA         BVA        FA
  0 C      6.1162     6.0000    -0.1162     3.9396     3.9396     0.0000
  1 C      6.0939     6.0000    -0.0939     3.8881     3.8881    -0.0000
  2 C      5.9867     6.0000     0.0133     3.8913     3.8913    -0.0000
  3 C      6.0941     6.0000    -0.0941     3.9210     3.9210    -0.0000
  4 H      0.9464     1.0000     0.0536     1.0078     1.0078     0.0000
  5 H      0.9610     1.0000     0.0390     1.0166     1.0166     0.0000
  6 H      0.9666     1.0000     0.0334     1.0283     1.0283     0.0000
  7 H      0.9607     1.0000     0.0393     0.9980     0.9980    -0.0000
  8 H      0.9811     1.0000     0.0189     1.0210     1.0210     0.0000
  9 H      0.9711     1.0000     0.0289     1.0155     1.0155    -0.0000
 10 H      0.9601     1.0000     0.0399     1.0086     1.0086     0.0000
 11 H      0.9622     1.0000     0.0378     1.0140     1.0140     0.0000

  Mayer bond orders larger than 0.100000
B(  0-C ,  1-C ) :   1.9125 B(  0-C ,  4-H ) :   0.9951 B(  0-C ,  5-H ) :   1.0011 
B(  1-C ,  2-C ) :   0.9945 B(  1-C ,  6-H ) :   0.9972 B(  2-C ,  3-C ) :   0.9455 
B(  2-C ,  7-H ) :   0.9833 B(  2-C ,  8-H ) :   1.0011 B(  3-C ,  9-H ) :   1.0013 
B(  3-C , 10-H ) :   0.9971 B(  3-C , 11-H ) :   0.9979 

-------
TIMINGS
-------

Total SCF time: 0 days 0 hours 0 min 24 sec 

Total time                  ....      24.783 sec
Sum of individual times     ....      24.530 sec  ( 99.0%)

Fock matrix formation       ....      22.625 sec  ( 91.3%)
  Split-RI-J                ....       5.216 sec  ( 23.1% of F)
  XC integration            ....      17.364 sec  ( 76.7% of F)
    Basis function eval.    ....       5.173 sec  ( 29.8% of XC)
    Density eval.           ....       4.947 sec  ( 28.5% of XC)
    XC-Functional eval.     ....       0.996 sec  (  5.7% of XC)
    XC-Potential eval.      ....       5.705 sec  ( 32.9% of XC)
Diagonalization             ....       0.150 sec  (  0.6%)
Density matrix formation    ....       0.012 sec  (  0.1%)
Population analysis         ....       0.015 sec  (  0.1%)
Initial guess               ....       0.638 sec  (  2.6%)
Orbital Transformation      ....       0.000 sec  (  0.0%)
Orbital Orthonormalization  ....       0.000 sec  (  0.0%)
DIIS solution               ....       0.057 sec  (  0.2%)
SOSCF solution              ....       0.055 sec  (  0.2%)
Grid generation             ....       0.978 sec  (  3.9%)

Maximum memory used throughout the entire SCF-calculation: 76.5 MB

-------------------------   --------------------
FINAL SINGLE POINT ENERGY      -157.051637685608
-------------------------   --------------------


                            ***************************************
                            *     ORCA property calculations      *
                            ***************************************

                                    ---------------------
                                    Active property flags
                                    ---------------------
   (+) Dipole Moment
   (+) Chemical Shifts
   (+) Nuclear properties (Hyperfine,Quadrupole)


------------------------------------------------------------------------------
                       ORCA ELECTRIC PROPERTIES CALCULATION
------------------------------------------------------------------------------

Dipole Moment Calculation                       ... on
Quadrupole Moment Calculation                   ... off
Polarizability Calculation                      ... off
GBWName                                         ... C.gbw
Electron density                                ... C.scfp
The origin for moment calculation is the CENTER OF MASS  = (-6.414799, -3.413028  0.288162)

-------------
DIPOLE MOMENT
-------------
                                X             Y             Z
Electronic contribution:     -0.56392      -1.82745       0.10412
Nuclear contribution   :      0.67359       1.95116      -0.05302
                        -----------------------------------------
Total Dipole Moment    :      0.10967       0.12371       0.05110
                        -----------------------------------------
Magnitude (a.u.)       :      0.17304
Magnitude (Debye)      :      0.43984



--------------------
Rotational spectrum 
--------------------
 
Rotational constants in cm-1:     0.753439     0.139795     0.136675 
Rotational constants in MHz : 22587.542673  4190.945826  4097.418867 

 Dipole components along the rotational axes: 
x,y,z [a.u.] :     0.165906     0.036882    -0.032528 
x,y,z [Debye]:     0.421700     0.093745    -0.082680 

 
------------------------------------------------------------------------------
                                ORCA EPR/NMR CALCULATION
------------------------------------------------------------------------------

GBWName                      ... C.gbw
Electron density             ... C.scfp
Spin density                 ... C.scfr
Treatment of gauge           ... GIAO (approximations 1/2el = 0,0)
Details of the CP(SCF) procedure:
       Solver   = POPLE   
       MaxIter  =    64   
       Tolerance=    1.000e-03
       Op-0     =   0- 15 =>  16-255
Multiplicity                 ... 1
g-tensor                     ... 0
NMR chemical shifts          ... 1
NMR spin-spin couplings      ... 0
NMR spectrum                 ... 0
Number of nuclei for epr/nmr ... 12
   Nucleus:   0C 
       Hyperfine : Isotope=   13 I=   0.500 P= 134.188
       Quadrupole: Isotope=   13 I=   0.500 Q=   0.000
       Spin-Orbit: Zeff=   3.600
       Nuclear Spin-Spin: Gn=   0.000
       EPRNMR Input: 
       rho(0)=N f(grad)=N a(iso)=N a(dip)=N a(orb)=N sigma(nmr)=Y spin-spin(nmr)=all-N,DSO-N,PSO-N,FC-N,SD-N
   Nucleus:   1C 
       Hyperfine : Isotope=   13 I=   0.500 P= 134.188
       Quadrupole: Isotope=   13 I=   0.500 Q=   0.000
       Spin-Orbit: Zeff=   3.600
       Nuclear Spin-Spin: Gn=   0.000
       EPRNMR Input: 
       rho(0)=N f(grad)=N a(iso)=N a(dip)=N a(orb)=N sigma(nmr)=Y spin-spin(nmr)=all-N,DSO-N,PSO-N,FC-N,SD-N
   Nucleus:   2C 
       Hyperfine : Isotope=   13 I=   0.500 P= 134.188
       Quadrupole: Isotope=   13 I=   0.500 Q=   0.000
       Spin-Orbit: Zeff=   3.600
       Nuclear Spin-Spin: Gn=   0.000
       EPRNMR Input: 
       rho(0)=N f(grad)=N a(iso)=N a(dip)=N a(orb)=N sigma(nmr)=Y spin-spin(nmr)=all-N,DSO-N,PSO-N,FC-N,SD-N
   Nucleus:   3C 
       Hyperfine : Isotope=   13 I=   0.500 P= 134.188
       Quadrupole: Isotope=   13 I=   0.500 Q=   0.000
       Spin-Orbit: Zeff=   3.600
       Nuclear Spin-Spin: Gn=   0.000
       EPRNMR Input: 
       rho(0)=N f(grad)=N a(iso)=N a(dip)=N a(orb)=N sigma(nmr)=Y spin-spin(nmr)=all-N,DSO-N,PSO-N,FC-N,SD-N
   Nucleus:   4H 
       Hyperfine : Isotope=    1 I=   0.500 P= 533.552
       Quadrupole: Isotope=    2 I=   1.000 Q=   0.003
       Spin-Orbit: Zeff=   1.000
       Nuclear Spin-Spin: Gn=   0.000
       EPRNMR Input: 
       rho(0)=N f(grad)=N a(iso)=N a(dip)=N a(orb)=N sigma(nmr)=Y spin-spin(nmr)=all-N,DSO-N,PSO-N,FC-N,SD-N
   Nucleus:   5H 
       Hyperfine : Isotope=    1 I=   0.500 P= 533.552
       Quadrupole: Isotope=    2 I=   1.000 Q=   0.003
       Spin-Orbit: Zeff=   1.000
       Nuclear Spin-Spin: Gn=   0.000
       EPRNMR Input: 
       rho(0)=N f(grad)=N a(iso)=N a(dip)=N a(orb)=N sigma(nmr)=Y spin-spin(nmr)=all-N,DSO-N,PSO-N,FC-N,SD-N
   Nucleus:   6H 
       Hyperfine : Isotope=    1 I=   0.500 P= 533.552
       Quadrupole: Isotope=    2 I=   1.000 Q=   0.003
       Spin-Orbit: Zeff=   1.000
       Nuclear Spin-Spin: Gn=   0.000
       EPRNMR Input: 
       rho(0)=N f(grad)=N a(iso)=N a(dip)=N a(orb)=N sigma(nmr)=Y spin-spin(nmr)=all-N,DSO-N,PSO-N,FC-N,SD-N
   Nucleus:   7H 
       Hyperfine : Isotope=    1 I=   0.500 P= 533.552
       Quadrupole: Isotope=    2 I=   1.000 Q=   0.003
       Spin-Orbit: Zeff=   1.000
       Nuclear Spin-Spin: Gn=   0.000
       EPRNMR Input: 
       rho(0)=N f(grad)=N a(iso)=N a(dip)=N a(orb)=N sigma(nmr)=Y spin-spin(nmr)=all-N,DSO-N,PSO-N,FC-N,SD-N
   Nucleus:   8H 
       Hyperfine : Isotope=    1 I=   0.500 P= 533.552
       Quadrupole: Isotope=    2 I=   1.000 Q=   0.003
       Spin-Orbit: Zeff=   1.000
       Nuclear Spin-Spin: Gn=   0.000
       EPRNMR Input: 
       rho(0)=N f(grad)=N a(iso)=N a(dip)=N a(orb)=N sigma(nmr)=Y spin-spin(nmr)=all-N,DSO-N,PSO-N,FC-N,SD-N
   Nucleus:   9H 
       Hyperfine : Isotope=    1 I=   0.500 P= 533.552
       Quadrupole: Isotope=    2 I=   1.000 Q=   0.003
       Spin-Orbit: Zeff=   1.000
       Nuclear Spin-Spin: Gn=   0.000
       EPRNMR Input: 
       rho(0)=N f(grad)=N a(iso)=N a(dip)=N a(orb)=N sigma(nmr)=Y spin-spin(nmr)=all-N,DSO-N,PSO-N,FC-N,SD-N
   Nucleus:  10H 
       Hyperfine : Isotope=    1 I=   0.500 P= 533.552
       Quadrupole: Isotope=    2 I=   1.000 Q=   0.003
       Spin-Orbit: Zeff=   1.000
       Nuclear Spin-Spin: Gn=   0.000
       EPRNMR Input: 
       rho(0)=N f(grad)=N a(iso)=N a(dip)=N a(orb)=N sigma(nmr)=Y spin-spin(nmr)=all-N,DSO-N,PSO-N,FC-N,SD-N
   Nucleus:  11H 
       Hyperfine : Isotope=    1 I=   0.500 P= 533.552
       Quadrupole: Isotope=    2 I=   1.000 Q=   0.003
       Spin-Orbit: Zeff=   1.000
       Nuclear Spin-Spin: Gn=   0.000
       EPRNMR Input: 
       rho(0)=N f(grad)=N a(iso)=N a(dip)=N a(orb)=N sigma(nmr)=Y spin-spin(nmr)=all-N,DSO-N,PSO-N,FC-N,SD-N
Forming RHS of the CP-SCF equations         ... 
Calculating right hand sides for GIAO treatment        ... 
  Entering RightHandSide GIAO. ScalHFX=    0.0000 NeedHFX=0
     -> 1-electron GIAO integrals will be done analytically
     -> RI used in SCF. Same chosen for GIAO calculation.
     Making grid for GIAO integrations   ...

GRID GIAO
---------

General Integration Accuracy     IntAcc      ... 4.388
Radial Grid Type                 RadialGrid  ... OptM3 with GC (2021)
Angular Grid (max. ang.)         AngularGrid ... 4 (Lebedev-302)
Angular grid pruning method      GridPruning ... 4 (adaptive)
Weight generation scheme         WeightScheme... Becke
Basis function cutoff            BFCut       ... 1.0000e-10
Integration weight cutoff        WCut        ... 1.0000e-14
Angular grids for H and He will be reduced by one unit
Partially contracted basis set               ... off
Rotationally invariant grid construction     ... off

Total number of grid points                  ...    50122
Total number of batches                      ...      788
Average number of points per batch           ...       63
Average number of grid points per atom       ...     4177

  One-electron GIAO integrals (SHARK)     ... done
  Calculating G(B)[P]                     ... (RI-J: SHARK-ok) (copy J to G-ok) => dG/dB done
  DFT XC-terms                            ... done
  Extracting occupied and virtual blocks  ... 
  Operator  0  NO=  16 NV= 240 
  Transforming and RHS contribution       ... done
  Adding eps_i * S(B)_ai terms            ... done

  GIAO profiling information: 
    Total GIAO time               ...      18.6 sec
       GIAO 1-electron integrals  ...       0.1 sec (  0.4%)
       GIAO RI-J                  ...       2.9 sec ( 15.7%)
       GIAO XC-terms              ...      14.8 sec ( 79.4%)
       Right hand side assembly   ...       0.0 sec (  0.1%)

  GIAO right hand side done


Forming final perturbed densities           ... done
Transforming perturbed density to AO basis  ... done

Magnetic field perturbation calculated in 18.643 sec

---------------
CHEMICAL SHIFTS
---------------

Note: using conversion factor for au to ppm alpha^2/2 =   26.625677252 
GIAO: Analytic para- and diamagnetic shielding integrals (SHARK)       ...done
 --------------
 Nucleus   0C :
 --------------

Diamagnetic contribution to the shielding tensor (ppm) : 
           261.234         10.723        -6.165
            11.296        246.350        12.131
            -1.991         12.182       233.310

Paramagnetic contribution to the shielding tensor (ppm): 
          -194.505          8.180        49.082
             7.947       -200.381       -99.132
            42.450       -100.674      -166.268

Total shielding tensor (ppm): 
            66.729         18.903        42.917
            19.243         45.969       -87.001
            40.460        -88.491        67.042


 Diagonalized sT*s matrix:
 
 sDSO           249.936          267.129          223.830  iso=     246.965
 sPSO          -297.357         -189.540          -74.258  iso=    -187.052
        ---------------  ---------------  ---------------
 Total          -47.421           77.589          149.573  iso=      59.914

 --------------
 Nucleus   1C :
 --------------

Diamagnetic contribution to the shielding tensor (ppm) : 
           258.192          8.176        -0.225
            12.158        256.497         9.817
             4.571         13.507       240.783

Paramagnetic contribution to the shielding tensor (ppm): 
          -254.101         12.491        55.965
            11.208       -227.561      -114.382
            61.914       -109.611      -195.242

Total shielding tensor (ppm): 
             4.091         20.668        55.740
            23.366         28.936      -104.565
            66.485        -96.105        45.540


 Diagonalized sT*s matrix:
 
 sDSO           269.743          251.168          234.560  iso=     251.824
 sPSO          -239.626         -347.689          -89.588  iso=    -225.635
        ---------------  ---------------  ---------------
 Total           30.117          -96.521          144.972  iso=      26.189

 --------------
 Nucleus   2C :
 --------------

Diamagnetic contribution to the shielding tensor (ppm) : 
           229.493          3.902         1.668
             8.039        246.553        -1.611
           -10.022         -5.416       243.226

Paramagnetic contribution to the shielding tensor (ppm): 
           -94.894         -1.459         0.184
            -2.310        -91.030        13.389
             9.348         16.218       -97.613

Total shielding tensor (ppm): 
           134.598          2.443         1.852
             5.730        155.523        11.777
            -0.674         10.802       145.613


 Diagonalized sT*s matrix:
 
 sDSO           227.115          249.279          242.878  iso=     239.757
 sPSO           -93.630         -110.415          -79.492  iso=     -94.512
        ---------------  ---------------  ---------------
 Total          133.485          138.864          163.386  iso=     145.245

 --------------
 Nucleus   3C :
 --------------

Diamagnetic contribution to the shielding tensor (ppm) : 
           242.020          2.612        -0.161
            -5.816        251.786        -7.368
             7.277         -4.594       251.763

Paramagnetic contribution to the shielding tensor (ppm): 
           -84.747          6.107        -0.880
            14.986        -77.280         0.885
           -10.166         -8.004       -90.278

Total shielding tensor (ppm): 
           157.273          8.719        -1.041
             9.170        174.506        -6.483
            -2.889        -12.598       161.484


 Diagonalized sT*s matrix:
 
 sDSO           242.697          249.911          252.960  iso=     248.523
 sPSO           -89.944          -92.043          -70.318  iso=     -84.102
        ---------------  ---------------  ---------------
 Total          152.753          157.868          182.642  iso=     164.421

 --------------
 Nucleus   4H :
 --------------

Diamagnetic contribution to the shielding tensor (ppm) : 
            27.100          6.033        -0.983
             6.814         32.505        10.587
             0.205         13.456        20.066

Paramagnetic contribution to the shielding tensor (ppm): 
             0.631         -2.782         2.555
            -5.056         -6.118       -10.589
             0.194        -14.113         4.660

Total shielding tensor (ppm): 
            27.731          3.251         1.572
             1.757         26.387        -0.002
             0.399         -0.656        24.726


 Diagonalized sT*s matrix:
 
 sDSO            30.859           12.005           36.807  iso=      26.557
 sPSO            -7.156           13.417           -7.088  iso=      -0.276
        ---------------  ---------------  ---------------
 Total           23.703           25.421           29.719  iso=      26.281

 --------------
 Nucleus   5H :
 --------------

Diamagnetic contribution to the shielding tensor (ppm) : 
            36.166          0.910        -8.753
             1.225         23.395         5.940
            -6.574          4.762        22.653

Paramagnetic contribution to the shielding tensor (ppm): 
            -8.182          0.479         8.692
             2.125          2.308        -7.457
             8.272         -5.559         2.136

Total shielding tensor (ppm): 
            27.984          1.389        -0.061
             3.349         25.703        -1.517
             1.698         -0.797        24.789


 Diagonalized sT*s matrix:
 
 sDSO            32.893           15.564           33.756  iso=      27.404
 sPSO            -9.832           10.381           -4.286  iso=      -1.246
        ---------------  ---------------  ---------------
 Total           23.061           25.944           29.470  iso=      26.158

 --------------
 Nucleus   6H :
 --------------

Diamagnetic contribution to the shielding tensor (ppm) : 
            35.066         -4.494        -2.930
            -0.341         33.764         1.117
            -3.126          4.781        29.058

Paramagnetic contribution to the shielding tensor (ppm): 
            -9.973          5.723         4.217
             2.547         -6.891        -0.987
             4.832         -4.892        -5.572

Total shielding tensor (ppm): 
            25.093          1.229         1.286
             2.206         26.873         0.130
             1.706         -0.111        23.487


 Diagonalized sT*s matrix:
 
 sDSO            35.623           30.206           32.059  iso=      32.629
 sPSO           -13.228           -5.213           -3.994  iso=      -7.478
        ---------------  ---------------  ---------------
 Total           22.395           24.993           28.065  iso=      25.151

 --------------
 Nucleus   7H :
 --------------

Diamagnetic contribution to the shielding tensor (ppm) : 
            27.976         -2.873         9.100
             3.176         30.722        -4.363
             2.232         -9.057        36.815

Paramagnetic contribution to the shielding tensor (ppm): 
             0.805          2.962        -5.698
            -3.364         -2.711         2.475
             2.094          7.691        -6.159

Total shielding tensor (ppm): 
            28.781          0.089         3.402
            -0.187         28.010        -1.888
             4.326         -1.366        30.656


 Diagonalized sT*s matrix:
 
 sDSO            23.747           30.903           40.863  iso=      31.838
 sPSO             1.613           -2.802           -6.877  iso=      -2.688
        ---------------  ---------------  ---------------
 Total           25.360           28.101           33.987  iso=      29.149

 --------------
 Nucleus   8H :
 --------------

Diamagnetic contribution to the shielding tensor (ppm) : 
            30.487         -1.352        -4.166
            -0.264         25.702         0.560
            -8.547         -2.409        33.331

Paramagnetic contribution to the shielding tensor (ppm): 
            -0.894          2.732         1.336
             0.410          2.966        -0.040
             4.299          2.778        -3.433

Total shielding tensor (ppm): 
            29.594          1.380        -2.829
             0.146         28.668         0.521
            -4.248          0.370        29.898


 Diagonalized sT*s matrix:
 
 sDSO            26.208           25.061           38.252  iso=      29.840
 sPSO            -0.273            3.869           -4.956  iso=      -0.454
        ---------------  ---------------  ---------------
 Total           25.934           28.929           33.296  iso=      29.387

 --------------
 Nucleus   9H :
 --------------

Diamagnetic contribution to the shielding tensor (ppm) : 
            35.452         -2.264        -4.099
            -3.700         33.653        -3.295
            -1.461         -0.362        36.488

Paramagnetic contribution to the shielding tensor (ppm): 
            -2.647          2.131         0.285
             4.677         -4.994         2.228
            -3.048          0.116        -6.481

Total shielding tensor (ppm): 
            32.805         -0.133        -3.814
             0.977         28.659        -1.067
            -4.509         -0.246        30.007


 Diagonalized sT*s matrix:
 
 sDSO            32.454           34.987           38.153  iso=      35.198
 sPSO            -5.488           -6.350           -2.285  iso=      -4.708
        ---------------  ---------------  ---------------
 Total           26.966           28.637           35.868  iso=      30.490

 --------------
 Nucleus  10H :
 --------------

Diamagnetic contribution to the shielding tensor (ppm) : 
            26.884          2.959         2.633
            -0.982         37.850         4.289
             2.687          2.839        35.586

Paramagnetic contribution to the shielding tensor (ppm): 
             0.500         -0.010        -1.791
             3.890         -2.748        -1.275
            -2.480         -1.285        -7.130

Total shielding tensor (ppm): 
            27.384          2.949         0.842
             2.908         35.101         3.015
             0.207          1.555        28.457


 Diagonalized sT*s matrix:
 
 sDSO            28.146           32.662           39.512  iso=      33.440
 sPSO            -1.782           -4.826           -2.770  iso=      -3.126
        ---------------  ---------------  ---------------
 Total           26.364           27.836           36.742  iso=      30.314

 --------------
 Nucleus  11H :
 --------------

Diamagnetic contribution to the shielding tensor (ppm) : 
            33.118         -0.773         6.270
            -8.521         27.492        -6.496
            12.598         -0.999        34.968

Paramagnetic contribution to the shielding tensor (ppm): 
            -2.465         -0.763        -3.878
             6.900          2.986         3.122
            -9.393         -2.194        -3.869

Total shielding tensor (ppm): 
            30.653         -1.536         2.392
            -1.621         30.477        -3.373
             3.204         -3.193        31.098


 Diagonalized sT*s matrix:
 
 sDSO            26.139           25.421           44.017  iso=      31.859
 sPSO             1.093            3.619           -8.061  iso=      -1.116
        ---------------  ---------------  ---------------
 Total           27.232           29.040           35.957  iso=      30.743



--------------------------------
CHEMICAL SHIELDING SUMMARY (ppm)
--------------------------------


  Nucleus  Element    Isotropic     Anisotropy
  -------  -------  ------------   ------------
      0       C           59.914        134.489 
      1       C           26.189        178.175 
      2       C          145.245         27.212 
      3       C          164.421         27.332 
      4       H           26.281          5.157 
      5       H           26.158          4.967 
      6       H           25.151          4.371 
      7       H           29.149          7.256 
      8       H           29.387          5.864 
      9       H           30.490          8.066 
     10       H           30.314          9.642 
     11       H           30.743          7.820 



Maximum memory used throughout the entire EPRNMR-calculation: 76.2 MB

Timings for individual modules:

Sum of individual times         ...       45.975 sec (=   0.766 min)
GTO integral calculation        ...        0.355 sec (=   0.006 min)   0.8 %
SCF iterations                  ...       24.800 sec (=   0.413 min)  53.9 %
EPR/NMR calculation             ...       20.819 sec (=   0.347 min)  45.3 %
                             ****ORCA TERMINATED NORMALLY****
TOTAL RUN TIME: 0 days 0 hours 0 minutes 46 seconds 242 msec
