      -----------------------------------------------------------      
     |                   =====================                   |     
     |                           x T B                           |     
     |                   =====================                   |     
     |                         S. Grimme                         |     
     |          Mulliken Center for Theoretical Chemistry        |     
     |                    University of Bonn                     |     
      -----------------------------------------------------------      

   * xtb version 6.5.1 (579679a) compiled by 'ehlert@majestix' on 2022-07-11

   xtb is free software: you can redistribute it and/or modify it under
   the terms of the GNU Lesser General Public License as published by
   the Free Software Foundation, either version 3 of the License, or
   (at your option) any later version.
   
   xtb is distributed in the hope that it will be useful,
   but WITHOUT ANY WARRANTY; without even the implied warranty of
   MERCHANTABILITY or FITNESS FOR A PARTICULAR PURPOSE.  See the
   GNU Lesser General Public License for more details.
   
   Cite this work as:
   * C. Bannwarth, E. Caldeweyher, S. Ehlert, A. Hansen, P. Pracht,
     J. Seibert, S. Spicher, S. Grimme, WIREs Comput. Mol. Sci., 2020, 11,
     e01493. DOI: 10.1002/wcms.1493
   
   for GFN2-xTB:
   * C. Bannwarth, S. Ehlert and S. Grimme., J. Chem. Theory Comput., 2019,
     15, 1652-1671. DOI: 10.1021/acs.jctc.8b01176
   for GFN1-xTB:
   * S. Grimme, C. Bannwarth, P. Shushkov, J. Chem. Theory Comput., 2017,
     13, 1989-2009. DOI: 10.1021/acs.jctc.7b00118
   for GFN0-xTB:
   * P. Pracht, E. Caldeweyher, S. Ehlert, S. Grimme, ChemRxiv, 2019, preprint.
     DOI: 10.26434/chemrxiv.8326202.v1
   for GFN-FF:
   * S. Spicher and S. Grimme, Angew. Chem. Int. Ed., 2020, 59, 15665-15673.
     DOI: 10.1002/anie.202004239
   
   for ALPB and GBSA implicit solvation:
   * S. Ehlert, M. Stahn, S. Spicher, S. Grimme, J. Chem. Theory Comput.,
     2021, 17, 4250-4261. DOI: 10.1021/acs.jctc.1c00471
   
   for DFT-D4:
   * E. Caldeweyher, C. Bannwarth and S. Grimme, J. Chem. Phys., 2017,
     147, 034112. DOI: 10.1063/1.4993215
   * E. Caldeweyher, S. Ehlert, A. Hansen, H. Neugebauer, S. Spicher,
     C. Bannwarth and S. Grimme, J. Chem. Phys., 2019, 150, 154122.
     DOI: 10.1063/1.5090222
   * E. Caldeweyher, J.-M. Mewes, S. Ehlert and S. Grimme, Phys. Chem. Chem. Phys.
     2020, 22, 8499-8512. DOI: 10.1039/D0CP00502A
   
   for sTDA-xTB:
   * S. Grimme and C. Bannwarth, J. Chem. Phys., 2016, 145, 054103.
     DOI: 10.1063/1.4959605
   
   in the mass-spec context:
   * V. Asgeirsson, C. Bauer and S. Grimme, Chem. Sci., 2017, 8, 4879.
     DOI: 10.1039/c7sc00601b
   * J. Koopman and S. Grimme, ACS Omega 2019, 4, 12, 15120-15133.
     DOI: 10.1021/acsomega.9b02011
   
   for metadynamics refer to:
   * S. Grimme, J. Chem. Theory Comput., 2019, 155, 2847-2862
     DOI: 10.1021/acs.jctc.9b00143
   
   for SPH calculations refer to:
   * S. Spicher and S. Grimme, J. Chem. Theory Comput., 2021, 17, 1701-1714
     DOI: 10.1021/acs.jctc.0c01306
   
   with help from (in alphabetical order)
   P. Atkinson, C. Bannwarth, F. Bohle, G. Brandenburg, E. Caldeweyher
   M. Checinski, S. Dohm, S. Ehlert, S. Ehrlich, I. Gerasimov, C. Hölzer
   A. Katbashev, J. Koopman, C. Lavigne, S. Lehtola, F. März, M. Müller,
   F. Musil, H. Neugebauer, J. Pisarek, C. Plett, P. Pracht, F. Pultar,
   J. Seibert, P. Shushkov, S. Spicher, M. Stahn, M. Steiner, T. Strunk,
   J. Stückrath, T. Rose, and J. Unsleber
   
 * started run on 2023/06/22 at 18:28:25.828     

           -------------------------------------------------
          |                Calculation Setup                |
           -------------------------------------------------

          program call               : xtb orcain0000.04.in.xyz -grad
          hostname                   : c04
          coordinate file            : orcain0000.04.in.xyz
          omp threads                :                     2

   ID    Z sym.   atoms
    1    6 C      1-3, 5, 6
    2    8 O      4
    3    1 H      7-14
########################################################################
[WARNING] Please study the warnings concerning your input carefully
-1- prog_main_parseArguments: the use of '-grad' is discouraged, please use '--grad' next time
########################################################################

           -------------------------------------------------
          |                 G F N 2 - x T B                 |
           -------------------------------------------------

        Reference                      10.1021/acs.jctc.8b01176
      * Hamiltonian:
        H0-scaling (s, p, d)           1.850000    2.230000    2.230000
        zeta-weighting                 0.500000
      * Dispersion:
        s8                             2.700000
        a1                             0.520000
        a2                             5.000000
        s9                             5.000000
      * Repulsion:
        kExp                           1.500000    1.000000
        rExp                           1.000000
      * Coulomb:
        alpha                          2.000000
        third order                    shell-resolved
        anisotropic                    true
        a3                             3.000000
        a5                             4.000000
        cn-shift                       1.200000
        cn-exp                         4.000000
        max-rad                        5.000000


          ...................................................
          :                      SETUP                      :
          :.................................................:
          :  # basis functions                  32          :
          :  # atomic orbitals                  32          :
          :  # shells                           20          :
          :  # electrons                        34          :
          :  max. iterations                   250          :
          :  Hamiltonian                  GFN2-xTB          :
          :  restarted?                      false          :
          :  GBSA solvation                  false          :
          :  PC potential                    false          :
          :  electronic temp.          300.0000000     K    :
          :  accuracy                    1.0000000          :
          :  -> integral cutoff          0.2500000E+02      :
          :  -> integral neglect         0.1000000E-07      :
          :  -> SCF convergence          0.1000000E-05 Eh   :
          :  -> wf. convergence          0.1000000E-03 e    :
          :  Broyden damping             0.4000000          :
          ...................................................

 iter      E             dE          RMSdq      gap      omega  full diag
   1    -19.0028953 -0.190029E+02  0.462E+00    4.74       0.0  T
   2    -19.0371139 -0.342186E-01  0.275E+00    4.23       1.0  T
   3    -19.0275227  0.959125E-02  0.151E+00    4.19       1.0  T
   4    -19.0427961 -0.152734E-01  0.543E-01    4.15       1.0  T
   5    -19.0443963 -0.160018E-02  0.889E-02    4.19       1.0  T
   6    -19.0444122 -0.158977E-04  0.629E-02    4.20       1.0  T
   7    -19.0444324 -0.202149E-04  0.254E-02    4.19       1.1  T
   8    -19.0444342 -0.173983E-05  0.546E-03    4.19       4.9  T
   9    -19.0444342 -0.768208E-07  0.168E-03    4.20      15.9  T
  10    -19.0444342 -0.306553E-08  0.558E-04    4.20      47.9  T
  11    -19.0444342 -0.344627E-09  0.135E-04    4.20     198.1  T

   *** convergence criteria satisfied after 11 iterations ***

         #    Occupation            Energy/Eh            Energy/eV
      -------------------------------------------------------------
         1        2.0000           -0.7035350             -19.1442
       ...           ...                  ...                  ...
        11        2.0000           -0.4918763             -13.3846
        12        2.0000           -0.4632896             -12.6068
        13        2.0000           -0.4608639             -12.5407
        14        2.0000           -0.4438648             -12.0782
        15        2.0000           -0.4261488             -11.5961
        16        2.0000           -0.4135304             -11.2527
        17        2.0000           -0.3775147             -10.2727 (HOMO)
        18                         -0.2233216              -6.0769 (LUMO)
        19                         -0.1926374              -5.2419
        20                          0.0304872               0.8296
        21                          0.0885462               2.4095
        22                          0.1165226               3.1707
       ...                                ...                  ...
        32                          0.6272573              17.0685
      -------------------------------------------------------------
                  HL-Gap            0.1541931 Eh            4.1958 eV
             Fermi-level           -0.3004182 Eh           -8.1748 eV

 SCC (total)                   0 d,  0 h,  0 min,  0.006 sec
 SCC setup                      ...        0 min,  0.000 sec (  2.442%)
 Dispersion                     ...        0 min,  0.000 sec (  1.219%)
 classical contributions        ...        0 min,  0.000 sec (  0.228%)
 integral evaluation            ...        0 min,  0.001 sec (  9.571%)
 iterations                     ...        0 min,  0.003 sec ( 57.488%)
 molecular gradient             ...        0 min,  0.001 sec ( 26.432%)
 printout                       ...        0 min,  0.000 sec (  1.928%)

         :::::::::::::::::::::::::::::::::::::::::::::::::::::
         ::                     SUMMARY                     ::
         :::::::::::::::::::::::::::::::::::::::::::::::::::::
         :: total energy             -18.765335361762 Eh    ::
         :: gradient norm              0.009744972137 Eh/a0 ::
         :: HOMO-LUMO gap              4.195806741896 eV    ::
         ::.................................................::
         :: SCC energy               -19.044434240164 Eh    ::
         :: -> isotropic ES            0.017269615645 Eh    ::
         :: -> anisotropic ES          0.003620857857 Eh    ::
         :: -> anisotropic XC          0.010502711177 Eh    ::
         :: -> dispersion             -0.008622969548 Eh    ::
         :: repulsion energy           0.279080708074 Eh    ::
         :: add. restraining           0.000000000000 Eh    ::
         :: total charge              -0.000000000000 e     ::
         :::::::::::::::::::::::::::::::::::::::::::::::::::::

           -------------------------------------------------
          |                Property Printout                |
           -------------------------------------------------

    * Orbital Energies and Occupations

         #    Occupation            Energy/Eh            Energy/eV
      -------------------------------------------------------------
         1        2.0000           -0.7035350             -19.1442
       ...           ...                  ...                  ...
         5        2.0000           -0.5813374             -15.8190
         6        2.0000           -0.5583330             -15.1930
         7        2.0000           -0.5491309             -14.9426
         8        2.0000           -0.5367377             -14.6054
         9        2.0000           -0.5194246             -14.1343
        10        2.0000           -0.5007880             -13.6271
        11        2.0000           -0.4918763             -13.3846
        12        2.0000           -0.4632896             -12.6068
        13        2.0000           -0.4608639             -12.5407
        14        2.0000           -0.4438648             -12.0782
        15        2.0000           -0.4261488             -11.5961
        16        2.0000           -0.4135304             -11.2527
        17        2.0000           -0.3775147             -10.2727 (HOMO)
        18                         -0.2233216              -6.0769 (LUMO)
        19                         -0.1926374              -5.2419
        20                          0.0304872               0.8296
        21                          0.0885462               2.4095
        22                          0.1165226               3.1707
        23                          0.1362962               3.7088
        24                          0.1431790               3.8961
        25                          0.1726861               4.6990
        26                          0.1762814               4.7969
        27                          0.2247072               6.1146
        28                          0.2726109               7.4181
       ...                                ...                  ...
        32                          0.6272573              17.0685
      -------------------------------------------------------------
                  HL-Gap            0.1541931 Eh            4.1958 eV
             Fermi-level           -0.3004182 Eh           -8.1748 eV

     #   Z          covCN         q      C6AA      α(0)
     1   6 C        2.837    -0.080    29.999     8.976
     2   6 C        2.883    -0.037    28.911     8.815
     3   6 C        3.685     0.076    19.504     6.323
     4   8 O        1.701    -0.283    18.700     5.838
     5   6 C        2.768     0.107    25.617     8.289
     6   6 C        2.833    -0.131    31.344     9.175
     7   1 H        0.926     0.045     2.382     2.413
     8   1 H        0.926     0.047     2.355     2.400
     9   1 H        0.925     0.041     2.442     2.444
    10   1 H        0.923     0.053     2.283     2.363
    11   1 H        0.924     0.043     2.415     2.430
    12   1 H        0.925     0.038     2.469     2.457
    13   1 H        0.926     0.043     2.413     2.429
    14   1 H        0.926     0.039     2.464     2.454

 Mol. C6AA /au·bohr⁶  :       1812.354646
 Mol. C8AA /au·bohr⁸  :      40648.686280
 Mol. α(0) /au        :         66.805710


Wiberg/Mayer (AO) data.
largest (>0.10) Wiberg bond orders for each atom

 ---------------------------------------------------------------------------
     #   Z sym  total        # sym  WBO       # sym  WBO       # sym  WBO
 ---------------------------------------------------------------------------
     1   6 C    3.992 --     2 C    1.978     7 H    0.976     8 H    0.975
     2   6 C    3.990 --     1 C    1.978     3 C    1.015     9 H    0.967
     3   6 C    3.949 --     2 C    1.015    11 H    0.973    10 H    0.956
                             4 O    0.943
     4   8 O    2.207 --     5 C    1.072     3 C    0.943     6 C    0.116
     5   6 C    3.937 --     6 C    1.880     4 O    1.072    12 H    0.953
     6   6 C    3.983 --     5 C    1.880    14 H    0.977    13 H    0.973
                             4 O    0.116
     7   1 H    0.998 --     1 C    0.976
     8   1 H    0.998 --     1 C    0.975
     9   1 H    0.998 --     2 C    0.967
    10   1 H    0.997 --     3 C    0.956
    11   1 H    0.998 --     3 C    0.973
    12   1 H    0.999 --     5 C    0.953
    13   1 H    0.998 --     6 C    0.973
    14   1 H    0.998 --     6 C    0.977
 ---------------------------------------------------------------------------

Topologies differ in total number of bonds
Writing topology from bond orders to xtbtopo.mol

molecular dipole:
                 x           y           z       tot (Debye)
 q only:       -0.464      -0.052      -0.058
   full:       -0.538      -0.108      -0.084       1.411
molecular quadrupole (traceless):
                xx          xy          yy          xz          yz          zz
 q only:        7.067      -3.699      -4.078       1.000      -1.528      -2.989
  q+dip:        6.267      -2.394      -5.432       1.568      -1.270      -0.835
   full:        7.442      -3.363      -5.466       1.363      -1.585      -1.976


           -------------------------------------------------
          | TOTAL ENERGY              -18.765335361762 Eh   |
          | GRADIENT NORM               0.009744972137 Eh/α |
          | HOMO-LUMO GAP               4.195806741896 eV   |
           -------------------------------------------------

------------------------------------------------------------------------
 * finished run on 2023/06/22 at 18:28:25.841     
------------------------------------------------------------------------
 total:
 * wall-time:     0 d,  0 h,  0 min,  0.013 sec
 *  cpu-time:     0 d,  0 h,  0 min,  0.023 sec
 * ratio c/w:     1.790 speedup
 SCF:
 * wall-time:     0 d,  0 h,  0 min,  0.006 sec
 *  cpu-time:     0 d,  0 h,  0 min,  0.012 sec
 * ratio c/w:     1.998 speedup

