
                                 *****************
                                 * O   R   C   A *
                                 *****************

                                            #,                                       
                                            ###                                      
                                            ####                                     
                                            #####                                    
                                            ######                                   
                                           ########,                                 
                                     ,,################,,,,,                         
                               ,,#################################,,                 
                          ,,##########################################,,             
                       ,#########################################, ''#####,          
                    ,#############################################,,   '####,        
                  ,##################################################,,,,####,       
                ,###########''''           ''''###############################       
              ,#####''   ,,,,##########,,,,          '''####'''          '####       
            ,##' ,,,,###########################,,,                        '##       
           ' ,,###''''                  '''############,,,                           
         ,,##''                                '''############,,,,        ,,,,,,###''
      ,#''                                            '''#######################'''  
     '                                                          ''''####''''         
             ,#######,   #######,   ,#######,      ##                                
            ,#'     '#,  ##    ##  ,#'     '#,    #''#        ######   ,####,        
            ##       ##  ##   ,#'  ##            #'  '#       #        #'  '#        
            ##       ##  #######   ##           ,######,      #####,   #    #        
            '#,     ,#'  ##    ##  '#,     ,#' ,#      #,         ##   #,  ,#        
             '#######'   ##     ##  '#######'  #'      '#     #####' # '####'        



                  #######################################################
                  #                        -***-                        #
                  #          Department of theory and spectroscopy      #
                  #    Directorship and core code : Frank Neese         #
                  #        Max Planck Institute fuer Kohlenforschung    #
                  #                Kaiser Wilhelm Platz 1               #
                  #                 D-45470 Muelheim/Ruhr               #
                  #                      Germany                        #
                  #                                                     #
                  #                  All rights reserved                #
                  #                        -***-                        #
                  #######################################################


                         Program Version 5.0.2 -  RELEASE  -


 With contributions from (in alphabetic order):
   Daniel Aravena         : Magnetic Suceptibility
   Michael Atanasov       : Ab Initio Ligand Field Theory (pilot matlab implementation)
   Alexander A. Auer      : GIAO ZORA, VPT2 properties, NMR spectrum
   Ute Becker             : Parallelization
   Giovanni Bistoni       : ED, misc. LED, open-shell LED, HFLD
   Martin Brehm           : Molecular dynamics
   Dmytro Bykov           : SCF Hessian
   Vijay G. Chilkuri      : MRCI spin determinant printing, contributions to CSF-ICE
   Dipayan Datta          : RHF DLPNO-CCSD density
   Achintya Kumar Dutta   : EOM-CC, STEOM-CC
   Dmitry Ganyushin       : Spin-Orbit,Spin-Spin,Magnetic field MRCI
   Miquel Garcia          : C-PCM and meta-GGA Hessian, CC/C-PCM, Gaussian charge scheme
   Yang Guo               : DLPNO-NEVPT2, F12-NEVPT2, CIM, IAO-localization
   Andreas Hansen         : Spin unrestricted coupled pair/coupled cluster methods
   Benjamin Helmich-Paris : MC-RPA, TRAH-SCF, COSX integrals
   Lee Huntington         : MR-EOM, pCC
   Robert Izsak           : Overlap fitted RIJCOSX, COSX-SCS-MP3, EOM
   Marcus Kettner         : VPT2
   Christian Kollmar      : KDIIS, OOCD, Brueckner-CCSD(T), CCSD density, CASPT2, CASPT2-K
   Simone Kossmann        : Meta GGA functionals, TD-DFT gradient, OOMP2, MP2 Hessian
   Martin Krupicka        : Initial AUTO-CI
   Lucas Lang             : DCDCAS
   Marvin Lechner         : AUTO-CI (C++ implementation), FIC-MRCC
   Dagmar Lenk            : GEPOL surface, SMD
   Dimitrios Liakos       : Extrapolation schemes; Compound Job, initial MDCI parallelization
   Dimitrios Manganas     : Further ROCIS development; embedding schemes
   Dimitrios Pantazis     : SARC Basis sets
   Anastasios Papadopoulos: AUTO-CI, single reference methods and gradients
   Taras Petrenko         : DFT Hessian,TD-DFT gradient, ASA, ECA, R-Raman, ABS, FL, XAS/XES, NRVS
   Peter Pinski           : DLPNO-MP2, DLPNO-MP2 Gradient
   Christoph Reimann      : Effective Core Potentials
   Marius Retegan         : Local ZFS, SOC
   Christoph Riplinger    : Optimizer, TS searches, QM/MM, DLPNO-CCSD(T), (RO)-DLPNO pert. Triples
   Tobias Risthaus        : Range-separated hybrids, TD-DFT gradient, RPA, STAB
   Michael Roemelt        : Original ROCIS implementation
   Masaaki Saitow         : Open-shell DLPNO-CCSD energy and density
   Barbara Sandhoefer     : DKH picture change effects
   Avijit Sen             : IP-ROCIS
   Kantharuban Sivalingam : CASSCF convergence, NEVPT2, FIC-MRCI
   Bernardo de Souza      : ESD, SOC TD-DFT
   Georgi Stoychev        : AutoAux, RI-MP2 NMR, DLPNO-MP2 response
   Willem Van den Heuvel  : Paramagnetic NMR
   Boris Wezisla          : Elementary symmetry handling
   Frank Wennmohs         : Technical directorship


 We gratefully acknowledge several colleagues who have allowed us to
 interface, adapt or use parts of their codes:
   Stefan Grimme, W. Hujo, H. Kruse, P. Pracht,  : VdW corrections, initial TS optimization,
                  C. Bannwarth, S. Ehlert          DFT functionals, gCP, sTDA/sTD-DF
   Ed Valeev, F. Pavosevic, A. Kumar             : LibInt (2-el integral package), F12 methods
   Garnet Chan, S. Sharma, J. Yang, R. Olivares  : DMRG
   Ulf Ekstrom                                   : XCFun DFT Library
   Mihaly Kallay                                 : mrcc  (arbitrary order and MRCC methods)
   Jiri Pittner, Ondrej Demel                    : Mk-CCSD
   Frank Weinhold                                : gennbo (NPA and NBO analysis)
   Christopher J. Cramer and Donald G. Truhlar   : smd solvation model
   Lars Goerigk                                  : TD-DFT with DH, B97 family of functionals
   V. Asgeirsson, H. Jonsson                     : NEB implementation
   FAccTs GmbH                                   : IRC, NEB, NEB-TS, DLPNO-Multilevel, CI-OPT
                                                   MM, QMMM, 2- and 3-layer-ONIOM, Crystal-QMMM,
                                                   LR-CPCM, SF, NACMEs, symmetry and pop. for TD-DFT,
                                                   nearIR, NL-DFT gradient (VV10), updates on ESD,
                                                   ML-optimized integration grids
   S Lehtola, MJT Oliveira, MAL Marques          : LibXC Library
   Liviu Ungur et al                             : ANISO software


 Your calculation uses the libint2 library for the computation of 2-el integrals
 For citations please refer to: http://libint.valeyev.net

 Your ORCA version has been built with support for libXC version: 5.1.0
 For citations please refer to: https://tddft.org/programs/libxc/

 This ORCA versions uses:
   CBLAS   interface :  Fast vector & matrix operations
   LAPACKE interface :  Fast linear algebra routines
   SCALAPACK package :  Parallel linear algebra routines
   Shared memory     :  Shared parallel matrices
   BLAS/LAPACK       :  OpenBLAS 0.3.15  USE64BITINT DYNAMIC_ARCH NO_AFFINITY Haswell SINGLE_THREADED
        Core in use  :  Haswell
   Copyright (c) 2011-2014, The OpenBLAS Project


================================================================================

----- Orbital basis set information -----
Your calculation utilizes the basis: def2-TZVP
   F. Weigend and R. Ahlrichs, Phys. Chem. Chem. Phys. 7, 3297 (2005).

================================================================================
                                        WARNINGS
                       Please study these warnings very carefully!
================================================================================


INFO   : the flag for use of the SHARK integral package has been found!

================================================================================
                                       INPUT FILE
================================================================================
NAME = CASSCF_2.in
|  1> ! RHF def2-TZVP TightSCF Conv
|  2> 
|  3> %casscf
|  4>   nel 2
|  5>   norb 2
|  6>   switchstep nr
|  7> end
|  8> 
|  9> %paras R= 4.0,0.5,35 end
| 10> 
| 11> * xyz 0 1
| 12> H 0 0 0
| 13> F 0 0 {R}
| 14> **                         ****END OF INPUT****
================================================================================

                       ******************************
                       * Parameter Scan Calculation *
                       ******************************

Trajectory settings:
    -> SCF surface will be mapped

There are 1 parameter(s) to be scanned
             R: range=   4.00000000 ..   0.50000000  steps=   35
There will be   35 energy evaluations


         *************************************************************
                                TRAJECTORY STEP   1
                  R  :   4.00000000
         *************************************************************
---------------------------------
CARTESIAN COORDINATES (ANGSTROEM)
---------------------------------
  H      0.000000    0.000000    0.000000
  F      0.000000    0.000000    4.000000

----------------------------
CARTESIAN COORDINATES (A.U.)
----------------------------
  NO LB      ZA    FRAG     MASS         X           Y           Z
   0 H     1.0000    0     1.008    0.000000    0.000000    0.000000
   1 F     9.0000    0    18.998    0.000000    0.000000    7.558905

--------------------------------
INTERNAL COORDINATES (ANGSTROEM)
--------------------------------
 H      0   0   0     0.000000000000     0.00000000     0.00000000
 F      1   0   0     4.000000000000     0.00000000     0.00000000

---------------------------
INTERNAL COORDINATES (A.U.)
---------------------------
 H      0   0   0     0.000000000000     0.00000000     0.00000000
 F      1   0   0     7.558904535685     0.00000000     0.00000000

---------------------
BASIS SET INFORMATION
---------------------
There are 2 groups of distinct atoms

 Group   1 Type H   : 5s1p contracted to 3s1p pattern {311/1}
 Group   2 Type F   : 11s6p2d1f contracted to 5s3p2d1f pattern {62111/411/11/1}

Atom   0H    basis set group =>   1
Atom   1F    basis set group =>   2
------------------------------------------------------------------------------
                           ORCA GTO INTEGRAL CALCULATION
------------------------------------------------------------------------------
------------------------------------------------------------------------------
                   ___                                                        
                  /   \      - P O W E R E D   B Y -                         
                 /     \                                                     
                 |  |  |   _    _      __       _____    __    __             
                 |  |  |  | |  | |    /  \     |  _  \  |  |  /  |          
                  \  \/   | |  | |   /    \    | | | |  |  | /  /          
                 / \  \   | |__| |  /  /\  \   | |_| |  |  |/  /          
                |  |  |   |  __  | /  /__\  \  |    /   |      \           
                |  |  |   | |  | | |   __   |  |    \   |  |\   \          
                \     /   | |  | | |  |  |  |  | |\  \  |  | \   \       
                 \___/    |_|  |_| |__|  |__|  |_| \__\ |__|  \__/        
                                                                              
                      - O R C A' S   B I G   F R I E N D -                    
                                      &                                       
                       - I N T E G R A L  F E E D E R -                       
                                                                              
 v1 FN, 2020, v2 2021                                                         
------------------------------------------------------------------------------


Reading SHARK input file CASSCF_2.SHARKINP.tmp ... ok
----------------------
SHARK INTEGRAL PACKAGE
----------------------

Number of atoms                             ...      2
Number of basis functions                   ...     37
Number of shells                            ...     15
Maximum angular momentum                    ...      3
Integral batch strategy                     ... SHARK/LIBINT Hybrid
RI-J (if used) integral strategy            ... SPLIT-RIJ (Revised 2003 algorithm where possible)
Printlevel                                  ...      1
Contraction scheme used                     ... SEGMENTED contraction
Coulomb Range Separation                    ... NOT USED
Exchange Range Separation                   ... NOT USED
Finite Nucleus Model                        ... NOT USED
Auxiliary Coulomb fitting basis             ... NOT available
Auxiliary J/K fitting basis                 ... NOT available
Auxiliary Correlation fitting basis         ... NOT available
Auxiliary 'external' fitting basis          ... NOT available
Integral threshold                          ...     2.500000e-11
Primitive cut-off                           ...     2.500000e-12
Primitive pair pre-selection threshold      ...     2.500000e-12

Calculating pre-screening integrals         ... done (  0.1 sec) Dimension = 15
Organizing shell pair data                  ... done (  0.2 sec)
Shell pair information
Total number of shell pairs                 ...       120
Shell pairs after pre-screening             ...       109
Total number of primitive shell pairs       ...       376
Primitive shell pairs kept                  ...       311
          la=0 lb=0:     33 shell pairs
          la=1 lb=0:     28 shell pairs
          la=1 lb=1:      9 shell pairs
          la=2 lb=0:     15 shell pairs
          la=2 lb=1:      7 shell pairs
          la=2 lb=2:      3 shell pairs
          la=3 lb=0:      7 shell pairs
          la=3 lb=1:      4 shell pairs
          la=3 lb=2:      2 shell pairs
          la=3 lb=3:      1 shell pairs

Calculating one electron integrals          ... done (  0.0 sec)
Calculating Nuclear repulsion               ... done (  0.0 sec) ENN=      1.190648718675 Eh
Calculating 4-index integrals               ... 
    -> SHARK/Ints2Disk: Thresh =     2.500000e-11 TCut=    2.500000e-12 
    -> calling libint FockFlag=2 Lmax_loc=3
    -> L=0 0 1 3:     0.001 sec done=       116 (=100.0%) skipped=         0 
    -> L=0 1 0 3:     0.001 sec done=       191 (=100.0%) skipped=         0 
    -> L=0 1 1 3:     0.001 sec done=        85 (=100.0%) skipped=         0 
    -> L=0 1 2 2:     0.001 sec done=        84 (=100.0%) skipped=         0 
    -> L=0 1 3 3:     0.005 sec done=        28 (=100.0%) skipped=         0 
    -> L=0 2 0 3:     0.001 sec done=       100 (=100.0%) skipped=         0 
    -> L=0 2 1 3:     0.001 sec done=        45 (=100.0%) skipped=         0 
    -> L=0 2 2 2:     0.000 sec done=        45 (=100.0%) skipped=         0 
    -> L=0 3 0 3:     0.000 sec done=        27 (=100.0%) skipped=         0 
    -> L=0 3 1 1:     0.000 sec done=        62 (=100.0%) skipped=         0 
    -> L=0 3 1 2:     0.000 sec done=        48 (=100.0%) skipped=         0 
    -> L=0 3 1 3:     0.000 sec done=        21 (=100.0%) skipped=         0 
    -> L=0 3 2 2:     0.000 sec done=        21 (=100.0%) skipped=         0 
    -> L=1 1 1 2:     0.000 sec done=        62 (=100.0%) skipped=         0 
    -> L=1 1 1 3:     0.000 sec done=        33 (=100.0%) skipped=         0 
    -> L=1 1 2 2:     0.008 sec done=        27 (=100.0%) skipped=         0 
    -> L=1 2 1 2:     0.001 sec done=        27 (=100.0%) skipped=         0 
    -> L=1 2 1 3:     0.001 sec done=        22 (=100.0%) skipped=         0 
    -> L=1 2 2 2:     0.004 sec done=        21 (=100.0%) skipped=         0 
    -> L=1 3 1 3:     0.000 sec done=         6 (=100.0%) skipped=         0 
    -> L=1 3 2 2:     0.001 sec done=        12 (=100.0%) skipped=         0 
    -> L=2 2 2 2:     0.000 sec done=         6 (=100.0%) skipped=         0 
    ->Total LIBINT loop time =    0.732 sec
    -> L=0 0 0 0:     0.000 sec done=       530 (=100.0%) skipped=         0 
    -> L=1 0 0 0:     0.001 sec done=       880 (=100.0%) skipped=         0 
    -> L=1 0 1 0:     0.001 sec done=       389 (=100.0%) skipped=         0 
    -> L=1 1 0 0:     0.001 sec done=       289 (=100.0%) skipped=         0 
    -> L=1 1 1 0:     0.007 sec done=       246 (=100.0%) skipped=         0 
    -> L=1 1 1 1:     0.001 sec done=        44 (=100.0%) skipped=         0 
    -> L=2 0 0 0:     0.006 sec done=       466 (=100.0%) skipped=         0 
    -> L=2 0 1 0:     0.001 sec done=       395 (=100.0%) skipped=         0 
    -> L=2 0 1 1:     0.001 sec done=       131 (=100.0%) skipped=         0 
    -> L=2 0 2 0:     0.000 sec done=       110 (=100.0%) skipped=         0 
    -> L=2 1 0 0:     0.000 sec done=       224 (=100.0%) skipped=         0 
    -> L=2 1 1 0:     0.000 sec done=       190 (=100.0%) skipped=         0 
    -> L=2 1 2 0:     0.003 sec done=       101 (=100.0%) skipped=         0 
    -> L=2 2 0 0:     0.000 sec done=        99 (=100.0%) skipped=         0 
    -> L=3 0 0 0:     0.005 sec done=       222 (=100.0%) skipped=         0 
    -> L=3 2 0 0:     0.017 sec done=        66 (=100.0%) skipped=         0 
    -> L=3 2 1 0:     0.001 sec done=        56 (=100.0%) skipped=         0 
    -> L=3 2 1 1:     0.001 sec done=        18 (=100.0%) skipped=         0 
    -> L=3 2 2 0:     0.001 sec done=        30 (=100.0%) skipped=         0 
    -> L=3 2 2 1:     0.002 sec done=        14 (=100.0%) skipped=         0 
    -> L=3 2 2 2:     0.001 sec done=         6 (=100.0%) skipped=         0 
    -> L=3 2 3 0:     0.001 sec done=        14 (=100.0%) skipped=         0 
    -> L=3 2 3 1:     0.001 sec done=         6 (=100.0%) skipped=         0 
    -> L=3 2 3 2:     0.001 sec done=         3 (=100.0%) skipped=         0 
    -> L=3 3 0 0:     0.001 sec done=        33 (=100.0%) skipped=         0 
    -> L=3 3 1 1:     0.001 sec done=         9 (=100.0%) skipped=         0 
    -> L=3 3 2 0:     0.001 sec done=        15 (=100.0%) skipped=         0 
    -> L=3 3 2 1:     0.001 sec done=         7 (=100.0%) skipped=         0 
    -> L=3 3 2 2:     0.000 sec done=         3 (=100.0%) skipped=         0 
    -> L=3 3 3 0:     0.001 sec done=         7 (=100.0%) skipped=         0 
    -> L=3 3 3 1:     0.001 sec done=         4 (=100.0%) skipped=         0 
    -> L=3 3 3 2:     0.001 sec done=         2 (=100.0%) skipped=         0 
    -> L=3 3 3 3:     0.000 sec done=         1 (=100.0%) skipped=         0 
    ->Total SHARK integral loop time =    0.716 sec
    -> Total Integral generation matrix time =    1.827 sec
    -> Number of small integrals   =      2154
    -> Number of medium integrals  =      3595
    -> Number of large integrals   =     21091
    -> Number of MB stored         =         0 MB


SHARK setup successfully completed in   2.8 seconds

Maximum memory used throughout the entire GTOINT-calculation: 36.8 MB
-------------------------------------------------------------------------------
                                 ORCA SCF
-------------------------------------------------------------------------------

------------
SCF SETTINGS
------------
Hamiltonian:
 Ab initio Hamiltonian  Method          .... Hartree-Fock(GTOs)


General Settings:
 Integral files         IntName         .... CASSCF_2
 Hartree-Fock type      HFTyp           .... CASSCF
 Total Charge           Charge          ....    0
 Multiplicity           Mult            ....    1
 Number of Electrons    NEL             ....   10
 Basis Dimension        Dim             ....   37
 Nuclear Repulsion      ENuc            ....      1.1906487187 Eh


Diagonalization of the overlap matrix:
Smallest eigenvalue                        ... 3.084e-02
Time for diagonalization                   ...    0.001 sec
Threshold for overlap eigenvalues          ... 1.000e-08
Number of eigenvalues below threshold      ... 0
Time for construction of square roots      ...    0.035 sec
Total time needed                          ...    0.051 sec

Time for model grid setup =    0.134 sec

------------------------------
INITIAL GUESS: MODEL POTENTIAL
------------------------------
Loading Hartree-Fock densities                     ... done
Calculating cut-offs                               ... done
Initializing the effective Hamiltonian             ... done
Setting up the integral package (SHARK)            ... done
Starting the Coulomb interaction                   ... done (   0.1 sec)
Reading the grid                                   ... done
Mapping shells                                     ... done
Starting the XC term evaluation                    ... done (   0.0 sec)
Transforming the Hamiltonian                       ... done (   0.0 sec)
Diagonalizing the Hamiltonian                      ... done (   0.0 sec)
Back transforming the eigenvectors                 ... done (   0.0 sec)
Now organizing SCF variables                       ... done
                      ------------------
                      INITIAL GUESS DONE (   0.4 sec)
                      ------------------


 ... the calculation is a CASSCF calculation -I'm leaving here GOOD LUCK!!!

-------------------------------------------------------------------------------
                              ORCA-CASSCF
-------------------------------------------------------------------------------

Setting up the integral package       ... done
Building the CAS space                ... done (3 configurations for Mult=1)

SYSTEM-SPECIFIC SETTINGS:
Number of active electrons          ...    2
Number of active orbitals           ...    2
Total number of electrons           ...   10
Total number of orbitals            ...   37

Determined orbital ranges:
   Internal       0 -    3 (   4 orbitals)
   Active         4 -    5 (   2 orbitals)
   External       6 -   36 (  31 orbitals)
Number of rotation parameters      ...    194

CI-STEP:
CI strategy                         ... General CI
Number of multiplicity blocks       ...    1
BLOCK  1 WEIGHT=   1.0000
  Multiplicity                      ...    1
  #(Configurations)                 ...    3
  #(CSFs)                           ...    3
  #(Roots)                          ...    1
    ROOT=0 WEIGHT=    1.000000

  PrintLevel                        ...    1
  N(GuessMat)                       ...       512
  MaxDim(CI)                        ...        10
  MaxIter(CI)                       ...        64
  Energy Tolerance CI               ...  2.50e-09
  Residual Tolerance CI             ...  2.50e-09
  Shift(CI)                         ...  1.00e-04

INTEGRAL-TRANSFORMATION-STEP:
  Algorithm                         ... EXACT

ORBITAL-IMPROVEMENT-STEP:
  Algorithm                         ... SuperCI(PT)
  Default Parametrization           ... CAYLEY
  Act-Act rotations                 ... depends on algorithm used
  FreezeIE                          ... 95.00% of ||g||
  Until reaching FreezeIE rotations with active orbitals are damped. 

  Approx. Fock at                   ... 0.000000e+00 density convergence
  Level shift                       ... energy gap dependent. Minimum=0.600

  Note: SuperCI(PT) will ignore FreezeIE, FreezeAct and FreezeGrad. In general Default settings are encouraged.
        In conjunction with ShiftUp, ShiftDn or GradScaling the performance of SuperCI(PT) is less optimal.  

  MaxRot                            ... 2.00e-01 
  Max. no of vectors (DIIS)         ... 15
  DThresh (cut-off) metric          ... 1.00e-06
  Switch step at gradient           ...  3.00e-02 
  Switch step at iteration          ...        50   
  Switch step to                    ... NR    

  Newton-Raphson/Augmented Hessian solver details:
  Solver                            ... 0
  Tol                               ... 1.0e-06
  Max. no of iterations             ... 35
  PrintLevel                        ... 1
  N(GuessMat)                       ... 512
  ExactDiagSwitch                   ... 512
  Diagonal Hessian Shift            ... 0.000e+00
  Secular equation safety shift     ... 1.000e-04
  Denominator shift in update       ... 1.000e-04
  Cutoff for Hessian matrix storage ... 2.500e-11
  Max. memory for integral trafo    ... 1024
  Max. no of expansion vectors      ... 35
  Max. DIIS vectors                 ... 12
  Preconditioner                    ... CASSCF-FOCKIAN
  SubMatrix initial guess+update    ... ON


SCF-SETTINGS:
  Incremental                       ... off
  RIJCOSX approximation             ... off
  RI-JK approximation               ... off
  AO integral handling              ... CONVENTIONAL
  Integral Neglect Thresh           ...  2.50e-11
  Primitive cutoff TCut             ...  2.50e-12
  Energy convergence tolerance      ...  2.50e-08
  Orbital gradient convergence      ...  2.50e-04
  Max. number of iterations         ...        75  


FINAL ORBITALS:
  Active   Orbitals                 ... natural 
  Internal Orbitals                 ... canonical 
  External Orbitals                 ... canonical 

------------------
CAS-SCF ITERATIONS
------------------


MACRO-ITERATION   1: 
   --- Inactive Energy E0 = -98.41354316 Eh
CI-ITERATION   0: 
   -99.889006999   0.000000000000 (    0.07)
   CI-PROBLEM SOLVED
   DENSITIES MADE

                 <<<<<<<<<<<<<<<<<<INITIAL CI STATE CHECK>>>>>>>>>>>>>>>>>>

BLOCK  1 MULT= 1 NROOTS= 1 
ROOT   0:  E=     -99.8890069988 Eh
      1.00000 [     1]: 11

                 <<<<<<<<<<<<<<<<<<INITIAL CI STATE CHECK>>>>>>>>>>>>>>>>>>

   E(CAS)=   -99.889006999 Eh DE=    0.000000e+00
   --- Energy gap subspaces: Ext-Act = 0.606   Act-Int = 0.343
   --- current l-shift: Up(Ext-Act) = 1.00   Dn(Act-Int) = 1.26
   N(occ)=  1.00000 1.00000
   ||g|| =     1.169444e+00 Max(G)=   -8.080946e-01 Rot=36,0
   --- Orbital Update [SuperCI(PT)]
   --- Canonicalize Internal Space
   --- Canonicalize External Space
   --- SX_PT (Skipped TA=0 IT=0): ||X|| =      0.080111338 Max(X)(6,5) =     -0.055535571 
   --- SFit(Active Orbitals)

MACRO-ITERATION   2: 
   --- Inactive Energy E0 = -98.45311132 Eh
CI-ITERATION   0: 
   -99.905596235   0.000000000000 (    0.15)
   CI-PROBLEM SOLVED
   DENSITIES MADE
   E(CAS)=   -99.905596235 Eh DE=   -1.658924e-02
   --- Energy gap subspaces: Ext-Act = 0.592   Act-Int = 0.348
   --- current l-shift: Up(Ext-Act) = 0.51   Dn(Act-Int) = 0.75
   N(occ)=  1.00000 1.00000
   ||g|| =     1.262880e-01 Max(G)=    7.012840e-02 Rot=20,3
   --- Orbital Update [SuperCI(PT)]
   --- Canonicalize Internal Space
   --- Canonicalize External Space
   --- SX_PT (Skipped TA=0 IT=0): ||X|| =      0.025468536 Max(X)(6,5) =     -0.022913615 
   --- SFit(Active Orbitals)

MACRO-ITERATION   3: 
   --- Inactive Energy E0 = -98.43961297 Eh
CI-ITERATION   0: 
   -99.906791408   0.000000000000 (    0.02)
   CI-PROBLEM SOLVED
   DENSITIES MADE
   E(CAS)=   -99.906791408 Eh DE=   -1.195172e-03
   --- Energy gap subspaces: Ext-Act = 0.581   Act-Int = 0.346
   --- current l-shift: Up(Ext-Act) = 0.35   Dn(Act-Int) = 0.59
   N(occ)=  1.00000 1.00000
   ||g|| =     5.439687e-02 Max(G)=    2.274674e-02 Rot=22,2
   --- Orbital Update [SuperCI(PT)]
   --- Canonicalize Internal Space
   --- Canonicalize External Space
   --- SX_PT (Skipped TA=0 IT=0): ||X|| =      0.009462705 Max(X)(6,5) =      0.006846372 
   --- SFit(Active Orbitals)

MACRO-ITERATION   4: 
   --- Inactive Energy E0 = -98.44479548 Eh
CI-ITERATION   0: 
   -99.906965202   0.000000000000 (    0.06)
   CI-PROBLEM SOLVED
   DENSITIES MADE
   E(CAS)=   -99.906965202 Eh DE=   -1.737949e-04
   --- Energy gap subspaces: Ext-Act = 0.577   Act-Int = 0.347
   --- current l-shift: Up(Ext-Act) = 0.02   Dn(Act-Int) = 0.25
   N(occ)=  1.00000 1.00000
   ||g|| =     1.342593e-02 Max(G)=    6.245090e-03 Rot=23,0
   --- Orbital Update [SuperCI(PT)]
   --- Canonicalize Internal Space
   --- Canonicalize External Space
   --- SX_PT (Skipped TA=0 IT=0): ||X|| =      0.001790251 Max(X)(9,2) =      0.000919500 
   --- SFit(Active Orbitals)

MACRO-ITERATION   5: 
   ===>>> Convergence to 3.0e-02 achieved - switching to Step=NR
   --- Inactive Energy E0 = -98.44329444 Eh
CI-ITERATION   0: 
   -99.906972951   0.000000000000 (    0.17)
   CI-PROBLEM SOLVED
   DENSITIES MADE
   E(CAS)=   -99.906972951 Eh DE=   -7.748511e-06
   --- Energy gap subspaces: Ext-Act = 0.576   Act-Int = 0.347
   --- current l-shift: Up(Ext-Act) = 0.02   Dn(Act-Int) = 0.25
   N(occ)=  1.00000 1.00000
   ||g|| =     6.750856e-04 Max(G)=   -3.145484e-04 Rot=23,0
   --- Orbital Update [        NR]
   Warning: offending negative eigenvalue - following it
   Warning: offending negative eigenvalue - following it
   Warning: offending negative eigenvalue - following it
   Warning: offending negative eigenvalue - following it
   --- SFit(Active Orbitals)

MACRO-ITERATION   6: 
   --- Inactive Energy E0 = -98.44325266 Eh
CI-ITERATION   0: 
   -99.906972961   0.000000000000 (    0.03)
   CI-PROBLEM SOLVED
   DENSITIES MADE
   E(CAS)=   -99.906972961 Eh DE=   -1.038894e-08
   --- Energy gap subspaces: Ext-Act = 0.576   Act-Int = 0.347
   --- current l-shift: Up(Ext-Act) = 0.02   Dn(Act-Int) = 0.25
   N(occ)=  1.00000 1.00000
   ||g|| =     8.217085e-09 Max(G)=    3.172062e-09 Rot=7,1
                     ---- THE CAS-SCF ENERGY   HAS CONVERGED ----
                     ---- THE CAS-SCF GRADIENT HAS CONVERGED ----
                            --- FINALIZING ORBITALS ---
                    ---- DOING ONE FINAL ITERATION FOR PRINTING ----
   --- Forming Natural Orbitals
   --- Canonicalize Internal Space
   --- Canonicalize External Space

MACRO-ITERATION   7: 
   --- Inactive Energy E0 = -98.44325266 Eh
   --- All densities will be recomputed
CI-ITERATION   0: 
   -99.906972961   0.000000000000 (    0.41)
   CI-PROBLEM SOLVED
   DENSITIES MADE
   E(CAS)=   -99.906972961 Eh DE=    9.876544e-12
   --- Energy gap subspaces: Ext-Act = 0.659   Act-Int = 0.433
   --- current l-shift: Up(Ext-Act) = 0.00   Dn(Act-Int) = 0.17
   N(occ)=  1.00000 1.00000
   ||g|| =     8.196198e-09 Max(G)=   -3.240729e-09 Rot=8,2
--------------
CASSCF RESULTS
--------------

Final CASSCF energy       : -99.906972961 Eh   -2718.6069 eV

----------------
ORBITAL ENERGIES
----------------

  NO   OCC          E(Eh)            E(eV) 
   0   2.0000     -26.381894      -717.8878 
   1   2.0000      -1.571498       -42.7626 
   2   2.0000      -0.704698       -19.1758 
   3   2.0000      -0.704688       -19.1755 
   4   1.0000      -0.272102        -7.4043 
   5   1.0000      -0.272102        -7.4043 
   6   0.0000       0.387350        10.5403 
   7   0.0000       0.639522        17.4023 
   8   0.0000       0.681643        18.5484 
   9   0.0000       0.683686        18.6040 
  10   0.0000       0.692297        18.8384 
  11   0.0000       1.662070        45.2272 
  12   0.0000       1.662095        45.2279 
  13   0.0000       1.662171        45.2300 
  14   0.0000       2.209463        60.1225 
  15   0.0000       2.213779        60.2400 
  16   0.0000       2.213780        60.2400 
  17   0.0000       2.226050        60.5739 
  18   0.0000       2.226085        60.5748 
  19   0.0000       2.549367        69.3718 
  20   0.0000       3.538175        96.2786 
  21   0.0000       3.543602        96.4263 
  22   0.0000       3.548087        96.5483 
  23   0.0000       3.805766       103.5602 
  24   0.0000       7.293207       198.4583 
  25   0.0000       7.300171       198.6478 
  26   0.0000       7.300173       198.6478 
  27   0.0000       7.320757       199.2079 
  28   0.0000       7.320757       199.2079 
  29   0.0000       7.355212       200.1455 
  30   0.0000       7.355214       200.1456 
  31   0.0000       8.752076       238.1561 
  32   0.0000       8.762792       238.4477 
  33   0.0000       8.762794       238.4478 
  34   0.0000       8.795298       239.3322 
  35   0.0000       8.795358       239.3339 
  36   0.0000      57.883144      1575.0804 


---------------------------------------------
CAS-SCF STATES FOR BLOCK  1 MULT= 1 NROOTS= 1
---------------------------------------------

ROOT   0:  E=     -99.9069729614 Eh
      0.50000 [     0]: 20
      0.50000 [     2]: 02


--------------
DENSITY MATRIX
--------------

                  0          1    
      0       1.000000   0.000000
      1       0.000000   1.000000
Trace of the electron density:  2.000000

-----------------
ENERGY COMPONENTS
-----------------

One electron energy          :   -142.137604950 Eh       -3867.7609 eV
Two electron energy          :     41.039983270 Eh        1116.7547 eV
Nuclear repulsion energy     :      1.190648719 Eh          32.3992 eV
                               ----------------
                                  -99.906972961

Kinetic energy               :     99.908639370 Eh        2718.6523 eV
Potential energy             :   -199.815612331 Eh       -5437.2592 eV
Virial ratio                 :     -1.999983321 
                               ----------------
                                  -99.906972961

Core energy                  :    -98.443252657 Eh    -2678.7771 eV


----------------------------
LOEWDIN ORBITAL-COMPOSITIONS
----------------------------

                      0         1         2         3         4         5   
                 -26.38189  -1.57150  -0.70470  -0.70469  -0.27210  -0.27210
                   2.00000   2.00000   2.00000   2.00000   1.00000   1.00000
                  --------  --------  --------  --------  --------  --------
 0 H  s               0.0       0.0       0.0       0.0      50.0      50.0
 1 F  s             100.0     100.0       0.0       0.0       0.0       0.0
 1 F  pz              0.0       0.0       0.0     100.0       0.0       0.0
 1 F  px              0.0       0.0       0.0       0.0      50.0      50.0
 1 F  py              0.0       0.0     100.0       0.0       0.0       0.0

                      6         7         8         9        10        11   
                   0.38735   0.63952   0.68164   0.68369   0.69230   1.66207
                   0.00000   0.00000   0.00000   0.00000   0.00000   0.00000
                  --------  --------  --------  --------  --------  --------
 0 H  s              97.3       0.7       0.0       0.0       2.1       0.0
 0 H  px              0.0       0.0       0.0       0.0       0.0     100.0
 1 F  s               0.9      98.2       0.0       0.0       0.8       0.0
 1 F  pz              1.8       1.1       0.0       0.0      97.1       0.0
 1 F  px              0.0       0.0     100.0       0.0       0.0       0.0
 1 F  py              0.0       0.0       0.0     100.0       0.0       0.0

                     12        13        14        15        16        17   
                   1.66210   1.66217   2.20946   2.21378   2.21378   2.22605
                   0.00000   0.00000   0.00000   0.00000   0.00000   0.00000
                  --------  --------  --------  --------  --------  --------
 0 H  pz              0.0     100.0       0.0       0.0       0.0       0.0
 0 H  py            100.0       0.0       0.0       0.0       0.0       0.0
 1 F  dz2             0.0       0.0      25.1       0.0       0.0      74.9
 1 F  dxz             0.0       0.0       0.0     100.0       0.0       0.0
 1 F  dx2y2           0.0       0.0      74.9       0.0       0.0      25.1
 1 F  dxy             0.0       0.0       0.0       0.0     100.0       0.0

                     18        19        20        21        22        23   
                   2.22608   2.54937   3.53818   3.54360   3.54809   3.80577
                   0.00000   0.00000   0.00000   0.00000   0.00000   0.00000
                  --------  --------  --------  --------  --------  --------
 0 H  s               0.0      99.8       0.0       0.0       0.1       0.0
 1 F  s               0.0       0.0       0.0       0.0       0.0      99.9
 1 F  pz              0.0       0.1       0.0       0.0      99.9       0.0
 1 F  px              0.0       0.0     100.0       0.0       0.0       0.0
 1 F  py              0.0       0.0       0.0     100.0       0.0       0.0
 1 F  dyz           100.0       0.0       0.0       0.0       0.0       0.0

                     24        25        26        27        28        29   
                   7.29321   7.30017   7.30017   7.32076   7.32076   7.35521
                   0.00000   0.00000   0.00000   0.00000   0.00000   0.00000
                  --------  --------  --------  --------  --------  --------
 1 F  f0              0.0      37.5       0.0       0.0       0.0       0.0
 1 F  f+1            37.5       0.0       0.0      62.5       0.0       0.0
 1 F  f-1             0.0       0.0       6.3       0.0       0.0      93.7
 1 F  f+2             0.0      62.5       0.0       0.0       0.0       0.0
 1 F  f-2             0.0       0.0       0.0       0.0     100.0       0.0
 1 F  f+3            62.5       0.0       0.0      37.5       0.0       0.0
 1 F  f-3             0.0       0.0      93.7       0.0       0.0       6.3

                     30        31        32        33        34        35   
                   7.35521   8.75208   8.76279   8.76279   8.79530   8.79536
                   0.00000   0.00000   0.00000   0.00000   0.00000   0.00000
                  --------  --------  --------  --------  --------  --------
 1 F  dz2             0.0      24.9       0.0       0.0       0.0      75.1
 1 F  dxz             0.0       0.0     100.0       0.0       0.0       0.0
 1 F  dyz             0.0       0.0       0.0       0.0     100.0       0.0
 1 F  dx2y2           0.0      75.1       0.0       0.0       0.0      24.9
 1 F  dxy             0.0       0.0       0.0     100.0       0.0       0.0
 1 F  f0             62.5       0.0       0.0       0.0       0.0       0.0
 1 F  f+2            37.5       0.0       0.0       0.0       0.0       0.0

                     36   
                  57.88314
                   0.00000
                  --------
 1 F  s             100.0

----------------------------
LOEWDIN REDUCED ACTIVE MOs  
----------------------------

                      0         1         2         3         4         5   
                 -26.38189  -1.57150  -0.70470  -0.70469  -0.27210  -0.27210
                   2.00000   2.00000   2.00000   2.00000   1.00000   1.00000
                  --------  --------  --------  --------  --------  --------
 0 H  s               0.0       0.0       0.0       0.0      50.0      50.0
 1 F  s             100.0     100.0       0.0       0.0       0.0       0.0
 1 F  pz              0.0       0.0       0.0     100.0       0.0       0.0
 1 F  px              0.0       0.0       0.0       0.0      50.0      50.0
 1 F  py              0.0       0.0     100.0       0.0       0.0       0.0

------------------------------------------------------------------------------
                           ORCA POPULATION ANALYSIS
------------------------------------------------------------------------------
Input electron density              ... CASSCF_2.scfp
BaseName (.gbw .S,...)              ... CASSCF_2

                    ********************************
                    * MULLIKEN POPULATION ANALYSIS *
                    ********************************

-----------------------
MULLIKEN ATOMIC CHARGES
-----------------------
   0 H :   -0.000095
   1 F :    0.000095
Sum of atomic charges:   -0.0000000

--------------------------------
MULLIKEN REDUCED ORBITAL CHARGES
--------------------------------
  0 H s       :     1.000095  s :     1.000095
      pz      :     0.000000  p :     0.000000
      px      :     0.000000
      py      :     0.000000
  1 F s       :     3.999987  s :     3.999987
      pz      :     1.999888  p :     4.999813
      px      :     0.999949
      py      :     1.999975
      dz2     :     0.000003  d :     0.000012
      dxz     :     0.000000
      dyz     :     0.000000
      dx2y2   :     0.000009
      dxy     :     0.000000
      f0      :     0.000006  f :     0.000092
      f+1     :     0.000022
      f-1     :     0.000001
      f+2     :     0.000011
      f-2     :     0.000000
      f+3     :     0.000036
      f-3     :     0.000016


                     *******************************
                     * LOEWDIN POPULATION ANALYSIS *
                     *******************************

----------------------
LOEWDIN ATOMIC CHARGES
----------------------
   0 H :   -0.000061
   1 F :    0.000061

-------------------------------
LOEWDIN REDUCED ORBITAL CHARGES
-------------------------------
  0 H s       :     1.000061  s :     1.000061
      pz      :     0.000000  p :     0.000000
      px      :     0.000000
      py      :     0.000000
  1 F s       :     3.999987  s :     3.999987
      pz      :     1.999923  p :     4.999847
      px      :     0.999949
      py      :     1.999975
      dz2     :     0.000003  d :     0.000013
      dxz     :     0.000000
      dyz     :     0.000000
      dx2y2   :     0.000009
      dxy     :     0.000000
      f0      :     0.000006  f :     0.000092
      f+1     :     0.000022
      f-1     :     0.000001
      f+2     :     0.000011
      f-2     :     0.000000
      f+3     :     0.000036
      f-3     :     0.000016


                      *****************************
                      * MAYER POPULATION ANALYSIS *
                      *****************************

  NA   - Mulliken gross atomic population
  ZA   - Total nuclear charge
  QA   - Mulliken gross atomic charge
  VA   - Mayer's total valence
  BVA  - Mayer's bonded valence
  FA   - Mayer's free valence

  ATOM       NA         ZA         QA         VA         BVA        FA
  0 H      1.0001     1.0000    -0.0001     1.0002     0.0002     1.0000
  1 F      8.9999     9.0000     0.0001     1.0002     0.0002     1.0000

  Mayer bond orders larger than 0.100000



-------------------------------------------------------------
 Forming the transition density       ... done in 0.349911 sec
-------------------------------------------------------------



==========================================
CASSCF UV, CD spectra and dipole moments
==========================================
-------------------
ABSORPTION SPECTRUM
-------------------

Center of mass           = (  0.0000,  0.0000,  7.1781)
Nuclear contribution to the dipole moment =     0.000000,    0.000000,   -3.750359 au

Calculating the Dipole integrals                  ... done
Transforming integrals                            ... done
Calculating the Linear Momentum integrals         ... done
Transforming integrals                            ... done
Calculating the Angular Momentum integrals        ... done
Transforming integrals                            ... done

------------------------------------------------------------------------------
                                 DIPOLE MOMENTS
------------------------------------------------------------------------------
  Root  Block           TX        TY        TZ           |T|
                      (Debye)   (Debye)   (Debye)      (Debye)
------------------------------------------------------------------------------
    0    0            0.00000  -0.00000   0.00173      0.00173

--------------
CASSCF TIMINGS
--------------

Total time                       ...      241.7 sec
Sum of individual times          ...      233.3 sec ( 96.5%)

Calculation of AO operators
   F(Core) operator              ...        0.3 sec (  0.1%)
   G(Act) operator               ...        0.1 sec (  0.1%)
   J(AO) operators               ...        0.0 sec (  0.0%)
Calculation of MO transformed quantities
   J(MO) operators               ...      135.3 sec ( 56.0%)
   (pq|rs) integrals             ...        0.0 sec (  0.0%)
   (ij|ab),(ia|jb) integrals     ...       78.7 sec ( 32.6%)
   AO->MO one electron integrals ...        0.0 sec (  0.0%)
Configuration interaction steps
   CI-setup phase                ...        0.0 sec (  0.0%)
   CI-solution phase             ...       12.5 sec (  5.2%)
   Generation of densities       ...        0.1 sec (  0.0%)
Orbital improvement steps
   Orbital gradient              ...        0.9 sec (  0.4%)
   O(1) converger                ...        0.0 sec (  0.0%)
   O(2) converger                ...        5.0 sec (  2.1%)
Properties                       ...        0.3 sec (  0.1%)
   SOC integral calculation      ...        0.0 sec (  0.0%)
   SSC RMEs (incl. integrals)    ...        0.0 sec (  0.0%)
   SOC RMEs                      ...        0.0 sec (  0.0%)

Maximum memory used throughout the entire CASSCF-calculation: 119.0 MB

-------------------------   --------------------
FINAL SINGLE POINT ENERGY       -99.906972961351
-------------------------   --------------------

Storing actual gbw-file in CASSCF_2.001.gbw ... done

                            ***************************************
                            *     ORCA property calculations      *
                            ***************************************

                                    ---------------------
                                    Active property flags
                                    ---------------------
   (+) Dipole Moment


------------------------------------------------------------------------------
                       ORCA ELECTRIC PROPERTIES CALCULATION
------------------------------------------------------------------------------

Dipole Moment Calculation                       ... on
Quadrupole Moment Calculation                   ... off
Polarizability Calculation                      ... off
GBWName                                         ... CASSCF_2.gbw
Electron density                                ... CASSCF_2.scfp
The origin for moment calculation is the CENTER OF MASS  = ( 0.000000,  0.000000  7.178050)

-------------
DIPOLE MOMENT
-------------
                                X             Y             Z
Electronic contribution:      0.00000      -0.00000       3.75104
Nuclear contribution   :      0.00000       0.00000      -3.75036
                        -----------------------------------------
Total Dipole Moment    :      0.00000      -0.00000       0.00068
                        -----------------------------------------
Magnitude (a.u.)       :      0.00068
Magnitude (Debye)      :      0.00173



--------------------
Rotational spectrum 
--------------------
 
Rotational constants in cm-1:     0.000000     1.100699     1.100699 
Rotational constants in MHz :     0.000000 32998.140725 32998.140725 

 Dipole components along the rotational axes: 
x,y,z [a.u.] :     0.000679    -0.000000     0.000000 
x,y,z [Debye]:     0.001725    -0.000000     0.000000 

 

         *************************************************************
                                TRAJECTORY STEP   2
                  R  :   3.89705882
         *************************************************************
---------------------------------
CARTESIAN COORDINATES (ANGSTROEM)
---------------------------------
  H      0.000000    0.000000    0.000000
  F      0.000000    0.000000    3.897059

----------------------------
CARTESIAN COORDINATES (A.U.)
----------------------------
  NO LB      ZA    FRAG     MASS         X           Y           Z
   0 H     1.0000    0     1.008    0.000000    0.000000    0.000000
   1 F     9.0000    0    18.998    0.000000    0.000000    7.364374

--------------------------------
INTERNAL COORDINATES (ANGSTROEM)
--------------------------------
 H      0   0   0     0.000000000000     0.00000000     0.00000000
 F      1   0   0     3.897058823529     0.00000000     0.00000000

---------------------------
INTERNAL COORDINATES (A.U.)
---------------------------
 H      0   0   0     0.000000000000     0.00000000     0.00000000
 F      1   0   0     7.364373904252     0.00000000     0.00000000

------------------------------------------------------------------------------
                   ___                                                        
                  /   \      - P O W E R E D   B Y -                         
                 /     \                                                     
                 |  |  |   _    _      __       _____    __    __             
                 |  |  |  | |  | |    /  \     |  _  \  |  |  /  |          
                  \  \/   | |  | |   /    \    | | | |  |  | /  /          
                 / \  \   | |__| |  /  /\  \   | |_| |  |  |/  /          
                |  |  |   |  __  | /  /__\  \  |    /   |      \           
                |  |  |   | |  | | |   __   |  |    \   |  |\   \          
                \     /   | |  | | |  |  |  |  | |\  \  |  | \   \       
                 \___/    |_|  |_| |__|  |__|  |_| \__\ |__|  \__/        
                                                                              
                      - O R C A' S   B I G   F R I E N D -                    
                                      &                                       
                       - I N T E G R A L  F E E D E R -                       
                                                                              
 v1 FN, 2020, v2 2021                                                         
------------------------------------------------------------------------------


Reading SHARK input file CASSCF_2.SHARKINP.tmp ... ok
----------------------
SHARK INTEGRAL PACKAGE
----------------------

Number of atoms                             ...      2
Number of basis functions                   ...     37
Number of shells                            ...     15
Maximum angular momentum                    ...      3
Integral batch strategy                     ... SHARK/LIBINT Hybrid
RI-J (if used) integral strategy            ... SPLIT-RIJ (Revised 2003 algorithm where possible)
Printlevel                                  ...      1
Contraction scheme used                     ... SEGMENTED contraction
Coulomb Range Separation                    ... NOT USED
Exchange Range Separation                   ... NOT USED
Finite Nucleus Model                        ... NOT USED
Auxiliary Coulomb fitting basis             ... NOT available
Auxiliary J/K fitting basis                 ... NOT available
Auxiliary Correlation fitting basis         ... NOT available
Auxiliary 'external' fitting basis          ... NOT available
Integral threshold                          ...     2.500000e-11
Primitive cut-off                           ...     2.500000e-12
Primitive pair pre-selection threshold      ...     2.500000e-12

Calculating pre-screening integrals         ... done (  0.1 sec) Dimension = 15
Organizing shell pair data                  ... done (  0.3 sec)
Shell pair information
Total number of shell pairs                 ...       120
Shell pairs after pre-screening             ...       110
Total number of primitive shell pairs       ...       376
Primitive shell pairs kept                  ...       312
          la=0 lb=0:     33 shell pairs
          la=1 lb=0:     29 shell pairs
          la=1 lb=1:      9 shell pairs
          la=2 lb=0:     15 shell pairs
          la=2 lb=1:      7 shell pairs
          la=2 lb=2:      3 shell pairs
          la=3 lb=0:      7 shell pairs
          la=3 lb=1:      4 shell pairs
          la=3 lb=2:      2 shell pairs
          la=3 lb=3:      1 shell pairs

Calculating one electron integrals          ... done (  0.0 sec)
Calculating Nuclear repulsion               ... done (  0.1 sec) ENN=      1.222099816904 Eh
Calculating 4-index integrals               ... 
    -> SHARK/Ints2Disk: Thresh =     2.500000e-11 TCut=    2.500000e-12 
    -> calling libint FockFlag=2 Lmax_loc=3
    -> L=0 0 1 3:     0.000 sec done=       120 (=100.0%) skipped=         0 
    -> L=0 1 0 3:     0.001 sec done=       191 (=100.0%) skipped=         0 
    -> L=0 1 1 3:     0.001 sec done=        98 (=100.0%) skipped=         0 
    -> L=0 1 2 2:     0.000 sec done=        86 (=100.0%) skipped=         0 
    -> L=0 1 3 3:     0.000 sec done=        29 (=100.0%) skipped=         0 
    -> L=0 2 0 3:     0.000 sec done=       100 (=100.0%) skipped=         0 
    -> L=0 2 1 3:     0.000 sec done=        52 (=100.0%) skipped=         0 
    -> L=0 2 2 2:     0.000 sec done=        45 (=100.0%) skipped=         0 
    -> L=0 3 0 3:     0.000 sec done=        27 (=100.0%) skipped=         0 
    -> L=0 3 1 1:     0.001 sec done=        62 (=100.0%) skipped=         0 
    -> L=0 3 1 2:     0.000 sec done=        48 (=100.0%) skipped=         0 
    -> L=0 3 1 3:     0.000 sec done=        24 (=100.0%) skipped=         0 
    -> L=0 3 2 2:     0.000 sec done=        21 (=100.0%) skipped=         0 
    -> L=1 1 1 2:     0.001 sec done=        62 (=100.0%) skipped=         0 
    -> L=1 1 1 3:     0.001 sec done=        34 (=100.0%) skipped=         0 
    -> L=1 1 2 2:     0.000 sec done=        27 (=100.0%) skipped=         0 
    -> L=1 2 1 2:     0.000 sec done=        27 (=100.0%) skipped=         0 
    -> L=1 2 1 3:     0.001 sec done=        27 (=100.0%) skipped=         0 
    -> L=1 2 2 2:     0.000 sec done=        21 (=100.0%) skipped=         0 
    -> L=1 3 1 3:     0.000 sec done=         9 (=100.0%) skipped=         0 
    -> L=1 3 2 2:     0.000 sec done=        12 (=100.0%) skipped=         0 
    -> L=2 2 2 2:     0.000 sec done=         6 (=100.0%) skipped=         0 
    ->Total LIBINT loop time =    0.011 sec
    -> L=0 0 0 0:     0.000 sec done=       536 (=100.0%) skipped=         0 
    -> L=1 0 0 0:     0.001 sec done=       902 (=100.0%) skipped=         0 
    -> L=1 0 1 0:     0.001 sec done=       394 (=100.0%) skipped=         0 
    -> L=1 1 0 0:     0.000 sec done=       290 (=100.0%) skipped=         0 
    -> L=1 1 1 0:     0.001 sec done=       250 (=100.0%) skipped=         0 
    -> L=1 1 1 1:     0.000 sec done=        44 (=100.0%) skipped=         0 
    -> L=2 0 0 0:     0.000 sec done=       472 (=100.0%) skipped=         0 
    -> L=2 0 1 0:     0.001 sec done=       400 (=100.0%) skipped=         0 
    -> L=2 0 1 1:     0.001 sec done=       131 (=100.0%) skipped=         0 
    -> L=2 0 2 0:     0.000 sec done=       111 (=100.0%) skipped=         0 
    -> L=2 1 0 0:     0.000 sec done=       225 (=100.0%) skipped=         0 
    -> L=2 1 1 0:     0.001 sec done=       192 (=100.0%) skipped=         0 
    -> L=2 1 2 0:     0.001 sec done=       102 (=100.0%) skipped=         0 
    -> L=2 2 0 0:     0.000 sec done=        99 (=100.0%) skipped=         0 
    -> L=3 0 0 0:     0.000 sec done=       225 (=100.0%) skipped=         0 
    -> L=3 2 0 0:     0.000 sec done=        66 (=100.0%) skipped=         0 
    -> L=3 2 1 0:     0.001 sec done=        56 (=100.0%) skipped=         0 
    -> L=3 2 1 1:     0.000 sec done=        18 (=100.0%) skipped=         0 
    -> L=3 2 2 0:     0.000 sec done=        30 (=100.0%) skipped=         0 
    -> L=3 2 2 1:     0.001 sec done=        14 (=100.0%) skipped=         0 
    -> L=3 2 2 2:     0.000 sec done=         6 (=100.0%) skipped=         0 
    -> L=3 2 3 0:     0.000 sec done=        14 (=100.0%) skipped=         0 
    -> L=3 2 3 1:     0.001 sec done=         8 (=100.0%) skipped=         0 
    -> L=3 2 3 2:     0.000 sec done=         3 (=100.0%) skipped=         0 
    -> L=3 3 0 0:     0.000 sec done=        33 (=100.0%) skipped=         0 
    -> L=3 3 1 1:     0.000 sec done=         9 (=100.0%) skipped=         0 
    -> L=3 3 2 0:     0.000 sec done=        15 (=100.0%) skipped=         0 
    -> L=3 3 2 1:     0.000 sec done=         7 (=100.0%) skipped=         0 
    -> L=3 3 2 2:     0.000 sec done=         3 (=100.0%) skipped=         0 
    -> L=3 3 3 0:     0.000 sec done=         7 (=100.0%) skipped=         0 
    -> L=3 3 3 1:     0.000 sec done=         4 (=100.0%) skipped=         0 
    -> L=3 3 3 2:     0.000 sec done=         2 (=100.0%) skipped=         0 
    -> L=3 3 3 3:     0.000 sec done=         1 (=100.0%) skipped=         0 
    ->Total SHARK integral loop time =    0.015 sec
    -> Total Integral generation matrix time =    0.166 sec
    -> Number of small integrals   =      2251
    -> Number of medium integrals  =      3610
    -> Number of large integrals   =     21502
    -> Number of MB stored         =         0 MB


SHARK setup successfully completed in   1.3 seconds

Maximum memory used throughout the entire GTOINT-calculation: 36.8 MB

Diagonalization of the overlap matrix:
Smallest eigenvalue                        ... 3.083e-02
Time for diagonalization                   ...    0.002 sec
Threshold for overlap eigenvalues          ... 1.000e-08
Number of eigenvalues below threshold      ... 0
Time for construction of square roots      ...    0.069 sec
Total time needed                          ...    0.071 sec



 ... the calculation is a CASSCF calculation -I'm leaving here GOOD LUCK!!!

-------------------------------------------------------------------------------
                              ORCA-CASSCF
-------------------------------------------------------------------------------

Setting up the integral package       ... done
Building the CAS space                ... done (3 configurations for Mult=1)

SYSTEM-SPECIFIC SETTINGS:
Number of active electrons          ...    2
Number of active orbitals           ...    2
Total number of electrons           ...   10
Total number of orbitals            ...   37

Determined orbital ranges:
   Internal       0 -    3 (   4 orbitals)
   Active         4 -    5 (   2 orbitals)
   External       6 -   36 (  31 orbitals)
Number of rotation parameters      ...    194

CI-STEP:
CI strategy                         ... General CI
Number of multiplicity blocks       ...    1
BLOCK  1 WEIGHT=   1.0000
  Multiplicity                      ...    1
  #(Configurations)                 ...    3
  #(CSFs)                           ...    3
  #(Roots)                          ...    1
    ROOT=0 WEIGHT=    1.000000

  PrintLevel                        ...    1
  N(GuessMat)                       ...       512
  MaxDim(CI)                        ...        10
  MaxIter(CI)                       ...        64
  Energy Tolerance CI               ...  2.50e-09
  Residual Tolerance CI             ...  2.50e-09
  Shift(CI)                         ...  1.00e-04

INTEGRAL-TRANSFORMATION-STEP:
  Algorithm                         ... EXACT

ORBITAL-IMPROVEMENT-STEP:
  Algorithm                         ... SuperCI(PT)
  Default Parametrization           ... CAYLEY
  Act-Act rotations                 ... depends on algorithm used
  FreezeIE                          ... 95.00% of ||g||
  Until reaching FreezeIE rotations with active orbitals are damped. 

  Approx. Fock at                   ... 0.000000e+00 density convergence
  Level shift                       ... energy gap dependent. Minimum=0.600

  Note: SuperCI(PT) will ignore FreezeIE, FreezeAct and FreezeGrad. In general Default settings are encouraged.
        In conjunction with ShiftUp, ShiftDn or GradScaling the performance of SuperCI(PT) is less optimal.  

  MaxRot                            ... 2.00e-01 
  Max. no of vectors (DIIS)         ... 15
  DThresh (cut-off) metric          ... 1.00e-06
  Switch step at gradient           ...  3.00e-02 
  Switch step at iteration          ...        50   
  Switch step to                    ... NR    

  Newton-Raphson/Augmented Hessian solver details:
  Solver                            ... 0
  Tol                               ... 1.0e-06
  Max. no of iterations             ... 35
  PrintLevel                        ... 1
  N(GuessMat)                       ... 512
  ExactDiagSwitch                   ... 512
  Diagonal Hessian Shift            ... 0.000e+00
  Secular equation safety shift     ... 1.000e-04
  Denominator shift in update       ... 1.000e-04
  Cutoff for Hessian matrix storage ... 2.500e-11
  Max. memory for integral trafo    ... 1024
  Max. no of expansion vectors      ... 35
  Max. DIIS vectors                 ... 12
  Preconditioner                    ... CASSCF-FOCKIAN
  SubMatrix initial guess+update    ... ON


SCF-SETTINGS:
  Incremental                       ... off
  RIJCOSX approximation             ... off
  RI-JK approximation               ... off
  AO integral handling              ... CONVENTIONAL
  Integral Neglect Thresh           ...  2.50e-11
  Primitive cutoff TCut             ...  2.50e-12
  Energy convergence tolerance      ...  2.50e-08
  Orbital gradient convergence      ...  2.50e-04
  Max. number of iterations         ...        75  


FINAL ORBITALS:
  Active   Orbitals                 ... natural 
  Internal Orbitals                 ... canonical 
  External Orbitals                 ... canonical 

------------------
CAS-SCF ITERATIONS
------------------


MACRO-ITERATION   1: 
   --- Inactive Energy E0 = -98.43987294 Eh
CI-ITERATION   0: 
   -99.906965956   0.000000000000 (    0.09)
   CI-PROBLEM SOLVED
   DENSITIES MADE

                 <<<<<<<<<<<<<<<<<<INITIAL CI STATE CHECK>>>>>>>>>>>>>>>>>>

BLOCK  1 MULT= 1 NROOTS= 1 
ROOT   0:  E=     -99.9069659560 Eh
      0.50000 [     0]: 20
      0.50000 [     2]: 02

                 <<<<<<<<<<<<<<<<<<INITIAL CI STATE CHECK>>>>>>>>>>>>>>>>>>

   E(CAS)=   -99.906965956 Eh DE=    0.000000e+00
   --- Energy gap subspaces: Ext-Act = 0.659   Act-Int = 0.433
   --- current l-shift: Up(Ext-Act) = 1.00   Dn(Act-Int) = 1.17
   N(occ)=  1.00000 1.00000
   ||g|| =     3.314875e-03 Max(G)=    1.409406e-03 Rot=5,1
   --- Orbital Update [SuperCI(PT)]
   --- Canonicalize Internal Space
   --- Canonicalize External Space
   --- SX_PT (Skipped TA=0 IT=0): ||X|| =      0.001312986 Max(X)(5,3) =      0.000816977 
   --- SFit(Active Orbitals)

MACRO-ITERATION   2: 
   ===>>> Convergence to 3.0e-02 achieved - switching to Step=NR
   --- Inactive Energy E0 = -98.43987569 Eh
CI-ITERATION   0: 
   -99.906967804   0.000000000000 (    0.03)
   CI-PROBLEM SOLVED
   DENSITIES MADE
   E(CAS)=   -99.906967804 Eh DE=   -1.847813e-06
   --- Energy gap subspaces: Ext-Act = 0.659   Act-Int = 0.433
   --- current l-shift: Up(Ext-Act) = 0.50   Dn(Act-Int) = 0.67
   N(occ)=  1.00000 1.00000
   ||g|| =     6.533703e-04 Max(G)=    3.460976e-04 Rot=6,3
   --- Orbital Update [        NR]
   Warning: offending negative eigenvalue - following it
   --- Forming Natural Orbitals

MACRO-ITERATION   3: 
   --- Inactive Energy E0 = -98.43987152 Eh
CI-ITERATION   0: 
   -99.906967853   0.000000000000 (    0.01)
   CI-PROBLEM SOLVED
   DENSITIES MADE
   E(CAS)=   -99.906967853 Eh DE=   -4.888213e-08
   --- Energy gap subspaces: Ext-Act = 0.573   Act-Int = 0.347
   --- current l-shift: Up(Ext-Act) = 0.36   Dn(Act-Int) = 0.59
   N(occ)=  1.00000 1.00000
   ||g|| =     7.108112e-08 Max(G)=   -3.383418e-08 Rot=9,2
                     ---- THE CAS-SCF GRADIENT HAS CONVERGED ----
                            --- FINALIZING ORBITALS ---
                    ---- DOING ONE FINAL ITERATION FOR PRINTING ----
   --- Forming Natural Orbitals
   --- Canonicalize Internal Space
   --- Canonicalize External Space

MACRO-ITERATION   4: 
   --- Inactive Energy E0 = -98.43987152 Eh
   --- All densities will be recomputed
CI-ITERATION   0: 
   -99.906967853   0.000000000000 (    0.16)
   CI-PROBLEM SOLVED
   DENSITIES MADE
   E(CAS)=   -99.906967853 Eh DE=    1.023182e-11
   --- Energy gap subspaces: Ext-Act = 0.659   Act-Int = 0.433
   --- current l-shift: Up(Ext-Act) = 0.00   Dn(Act-Int) = 0.17
   N(occ)=  1.00000 1.00000
   ||g|| =     7.108319e-08 Max(G)=   -3.383449e-08 Rot=9,2
--------------
CASSCF RESULTS
--------------

Final CASSCF energy       : -99.906967853 Eh   -2718.6068 eV


---------------------------------------------
CAS-SCF STATES FOR BLOCK  1 MULT= 1 NROOTS= 1
---------------------------------------------

ROOT   0:  E=     -99.9069678527 Eh
      0.50000 [     0]: 20
      0.50000 [     2]: 02


--------------
DENSITY MATRIX
--------------

                  0          1    
      0       1.000000   0.000000
      1       0.000000   1.000000
Trace of the electron density:  2.000000

-----------------
ENERGY COMPONENTS
-----------------

One electron energy          :   -142.200500064 Eh       -3869.4723 eV
Two electron energy          :     41.071432394 Eh        1117.6105 eV
Nuclear repulsion energy     :      1.222099817 Eh          33.2550 eV
                               ----------------
                                  -99.906967853

Kinetic energy               :     99.908677580 Eh        2718.6533 eV
Potential energy             :   -199.815645432 Eh       -5437.2601 eV
Virial ratio                 :     -1.999982887 
                               ----------------
                                  -99.906967853

Core energy                  :    -98.439871516 Eh    -2678.6851 eV


----------------------------
LOEWDIN REDUCED ACTIVE MOs  
----------------------------

                      0         1         2         3         4         5   
                 -26.38190  -1.57151  -0.70471  -0.70470  -0.27206  -0.27206
                   2.00000   2.00000   2.00000   2.00000   1.00000   1.00000
                  --------  --------  --------  --------  --------  --------
 0 H  s               0.0       0.0       0.0       0.0      50.0      50.0
 1 F  s             100.0     100.0       0.0       0.0       0.0       0.0
 1 F  pz              0.0       0.0       0.0     100.0       0.0       0.0
 1 F  px              0.0       0.0       0.0       0.0      50.0      50.0
 1 F  py              0.0       0.0     100.0       0.0       0.0       0.0


-------------------------------------------------------------
 Forming the transition density       ... done in 0.259331 sec
-------------------------------------------------------------



==========================================
CASSCF UV, CD spectra and dipole moments
==========================================
-------------------
ABSORPTION SPECTRUM
-------------------

Center of mass           = (  0.0000,  0.0000,  6.9933)
Nuclear contribution to the dipole moment =     0.000000,    0.000000,   -3.653843 au

Calculating the Dipole integrals                  ... done
Transforming integrals                            ... done
Calculating the Linear Momentum integrals         ... done
Transforming integrals                            ... done
Calculating the Angular Momentum integrals        ... done
Transforming integrals                            ... done

------------------------------------------------------------------------------
                                 DIPOLE MOMENTS
------------------------------------------------------------------------------
  Root  Block           TX        TY        TZ           |T|
                      (Debye)   (Debye)   (Debye)      (Debye)
------------------------------------------------------------------------------
    0    0            0.00000   0.00000   0.00221      0.00221

--------------
CASSCF TIMINGS
--------------

Total time                       ...      144.3 sec
Sum of individual times          ...      139.7 sec ( 96.8%)

Calculation of AO operators
   F(Core) operator              ...        0.2 sec (  0.1%)
   G(Act) operator               ...        0.0 sec (  0.0%)
   J(AO) operators               ...        0.0 sec (  0.0%)
Calculation of MO transformed quantities
   J(MO) operators               ...       55.8 sec ( 38.7%)
   (pq|rs) integrals             ...        0.0 sec (  0.0%)
   (ij|ab),(ia|jb) integrals     ...       73.0 sec ( 50.6%)
   AO->MO one electron integrals ...        0.0 sec (  0.0%)
Configuration interaction steps
   CI-setup phase                ...        0.0 sec (  0.0%)
   CI-solution phase             ...        5.8 sec (  4.0%)
   Generation of densities       ...        0.0 sec (  0.0%)
Orbital improvement steps
   Orbital gradient              ...        0.4 sec (  0.3%)
   O(1) converger                ...        0.0 sec (  0.0%)
   O(2) converger                ...        4.3 sec (  3.0%)
Properties                       ...        0.3 sec (  0.2%)
   SOC integral calculation      ...        0.0 sec (  0.0%)
   SSC RMEs (incl. integrals)    ...        0.0 sec (  0.0%)
   SOC RMEs                      ...        0.0 sec (  0.0%)

Maximum memory used throughout the entire CASSCF-calculation: 119.0 MB

-------------------------   --------------------
FINAL SINGLE POINT ENERGY       -99.906967852686
-------------------------   --------------------

Storing actual gbw-file in CASSCF_2.002.gbw ... done

                            ***************************************
                            *     ORCA property calculations      *
                            ***************************************

                                    ---------------------
                                    Active property flags
                                    ---------------------
   (+) Dipole Moment


------------------------------------------------------------------------------
                       ORCA ELECTRIC PROPERTIES CALCULATION
------------------------------------------------------------------------------

Dipole Moment Calculation                       ... on
Quadrupole Moment Calculation                   ... off
Polarizability Calculation                      ... off
GBWName                                         ... CASSCF_2.gbw
Electron density                                ... CASSCF_2.scfp
The origin for moment calculation is the CENTER OF MASS  = ( 0.000000,  0.000000  6.993321)

-------------
DIPOLE MOMENT
-------------
                                X             Y             Z
Electronic contribution:      0.00000       0.00000       3.65471
Nuclear contribution   :      0.00000       0.00000      -3.65384
                        -----------------------------------------
Total Dipole Moment    :      0.00000       0.00000       0.00087
                        -----------------------------------------
Magnitude (a.u.)       :      0.00087
Magnitude (Debye)      :      0.00221



--------------------
Rotational spectrum 
--------------------
 
Rotational constants in cm-1:     0.000000     1.159618     1.159618 
Rotational constants in MHz :     0.000000 34764.463416 34764.463416 

 Dipole components along the rotational axes: 
x,y,z [a.u.] :     0.000869     0.000000     0.000000 
x,y,z [Debye]:     0.002208     0.000000     0.000000 

 

         *************************************************************
                                TRAJECTORY STEP   3
                  R  :   3.79411765
         *************************************************************
---------------------------------
CARTESIAN COORDINATES (ANGSTROEM)
---------------------------------
  H      0.000000    0.000000    0.000000
  F      0.000000    0.000000    3.794118

----------------------------
CARTESIAN COORDINATES (A.U.)
----------------------------
  NO LB      ZA    FRAG     MASS         X           Y           Z
   0 H     1.0000    0     1.008    0.000000    0.000000    0.000000
   1 F     9.0000    0    18.998    0.000000    0.000000    7.169843

--------------------------------
INTERNAL COORDINATES (ANGSTROEM)
--------------------------------
 H      0   0   0     0.000000000000     0.00000000     0.00000000
 F      1   0   0     3.794117647059     0.00000000     0.00000000

---------------------------
INTERNAL COORDINATES (A.U.)
---------------------------
 H      0   0   0     0.000000000000     0.00000000     0.00000000
 F      1   0   0     7.169843272819     0.00000000     0.00000000

------------------------------------------------------------------------------
                   ___                                                        
                  /   \      - P O W E R E D   B Y -                         
                 /     \                                                     
                 |  |  |   _    _      __       _____    __    __             
                 |  |  |  | |  | |    /  \     |  _  \  |  |  /  |          
                  \  \/   | |  | |   /    \    | | | |  |  | /  /          
                 / \  \   | |__| |  /  /\  \   | |_| |  |  |/  /          
                |  |  |   |  __  | /  /__\  \  |    /   |      \           
                |  |  |   | |  | | |   __   |  |    \   |  |\   \          
                \     /   | |  | | |  |  |  |  | |\  \  |  | \   \       
                 \___/    |_|  |_| |__|  |__|  |_| \__\ |__|  \__/        
                                                                              
                      - O R C A' S   B I G   F R I E N D -                    
                                      &                                       
                       - I N T E G R A L  F E E D E R -                       
                                                                              
 v1 FN, 2020, v2 2021                                                         
------------------------------------------------------------------------------


Reading SHARK input file CASSCF_2.SHARKINP.tmp ... ok
----------------------
SHARK INTEGRAL PACKAGE
----------------------

Number of atoms                             ...      2
Number of basis functions                   ...     37
Number of shells                            ...     15
Maximum angular momentum                    ...      3
Integral batch strategy                     ... SHARK/LIBINT Hybrid
RI-J (if used) integral strategy            ... SPLIT-RIJ (Revised 2003 algorithm where possible)
Printlevel                                  ...      1
Contraction scheme used                     ... SEGMENTED contraction
Coulomb Range Separation                    ... NOT USED
Exchange Range Separation                   ... NOT USED
Finite Nucleus Model                        ... NOT USED
Auxiliary Coulomb fitting basis             ... NOT available
Auxiliary J/K fitting basis                 ... NOT available
Auxiliary Correlation fitting basis         ... NOT available
Auxiliary 'external' fitting basis          ... NOT available
Integral threshold                          ...     2.500000e-11
Primitive cut-off                           ...     2.500000e-12
Primitive pair pre-selection threshold      ...     2.500000e-12

Calculating pre-screening integrals         ... done (  0.1 sec) Dimension = 15
Organizing shell pair data                  ... done (  0.2 sec)
Shell pair information
Total number of shell pairs                 ...       120
Shell pairs after pre-screening             ...       111
Total number of primitive shell pairs       ...       376
Primitive shell pairs kept                  ...       313
          la=0 lb=0:     33 shell pairs
          la=1 lb=0:     29 shell pairs
          la=1 lb=1:     10 shell pairs
          la=2 lb=0:     15 shell pairs
          la=2 lb=1:      7 shell pairs
          la=2 lb=2:      3 shell pairs
          la=3 lb=0:      7 shell pairs
          la=3 lb=1:      4 shell pairs
          la=3 lb=2:      2 shell pairs
          la=3 lb=3:      1 shell pairs

Calculating one electron integrals          ... done (  0.0 sec)
Calculating Nuclear repulsion               ... done (  0.1 sec) ENN=      1.255257563874 Eh
Calculating 4-index integrals               ... 
    -> SHARK/Ints2Disk: Thresh =     2.500000e-11 TCut=    2.500000e-12 
    -> calling libint FockFlag=2 Lmax_loc=3
    -> L=0 0 1 3:     0.001 sec done=       120 (=100.0%) skipped=         0 
    -> L=0 1 0 3:     0.001 sec done=       196 (=100.0%) skipped=         0 
    -> L=0 1 1 3:     0.001 sec done=       102 (=100.0%) skipped=         0 
    -> L=0 1 2 2:     0.000 sec done=        87 (=100.0%) skipped=         0 
    -> L=0 1 3 3:     0.000 sec done=        29 (=100.0%) skipped=         0 
    -> L=0 2 0 3:     0.000 sec done=       101 (=100.0%) skipped=         0 
    -> L=0 2 1 3:     0.001 sec done=        53 (=100.0%) skipped=         0 
    -> L=0 2 2 2:     0.000 sec done=        45 (=100.0%) skipped=         0 
    -> L=0 3 0 3:     0.000 sec done=        28 (=100.0%) skipped=         0 
    -> L=0 3 1 1:     0.001 sec done=        62 (=100.0%) skipped=         0 
    -> L=0 3 1 2:     0.001 sec done=        48 (=100.0%) skipped=         0 
    -> L=0 3 1 3:     0.001 sec done=        25 (=100.0%) skipped=         0 
    -> L=0 3 2 2:     0.000 sec done=        21 (=100.0%) skipped=         0 
    -> L=1 1 1 2:     0.001 sec done=        65 (=100.0%) skipped=         0 
    -> L=1 1 1 3:     0.001 sec done=        34 (=100.0%) skipped=         0 
    -> L=1 1 2 2:     0.000 sec done=        30 (=100.0%) skipped=         0 
    -> L=1 2 1 2:     0.001 sec done=        27 (=100.0%) skipped=         0 
    -> L=1 2 1 3:     0.001 sec done=        27 (=100.0%) skipped=         0 
    -> L=1 2 2 2:     0.001 sec done=        21 (=100.0%) skipped=         0 
    -> L=1 3 1 3:     0.000 sec done=         9 (=100.0%) skipped=         0 
    -> L=1 3 2 2:     0.001 sec done=        12 (=100.0%) skipped=         0 
    -> L=2 2 2 2:     0.000 sec done=         6 (=100.0%) skipped=         0 
    ->Total LIBINT loop time =    0.014 sec
    -> L=0 0 0 0:     0.001 sec done=       541 (=100.0%) skipped=         0 
    -> L=1 0 0 0:     0.001 sec done=       917 (=100.0%) skipped=         0 
    -> L=1 0 1 0:     0.001 sec done=       410 (=100.0%) skipped=         0 
    -> L=1 1 0 0:     0.001 sec done=       310 (=100.0%) skipped=         0 
    -> L=1 1 1 0:     0.001 sec done=       263 (=100.0%) skipped=         0 
    -> L=1 1 1 1:     0.001 sec done=        50 (=100.0%) skipped=         0 
    -> L=2 0 0 0:     0.001 sec done=       475 (=100.0%) skipped=         0 
    -> L=2 0 1 0:     0.001 sec done=       410 (=100.0%) skipped=         0 
    -> L=2 0 1 1:     0.001 sec done=       133 (=100.0%) skipped=         0 
    -> L=2 0 2 0:     0.000 sec done=       113 (=100.0%) skipped=         0 
    -> L=2 1 0 0:     0.001 sec done=       225 (=100.0%) skipped=         0 
    -> L=2 1 1 0:     0.001 sec done=       198 (=100.0%) skipped=         0 
    -> L=2 1 2 0:     0.001 sec done=       103 (=100.0%) skipped=         0 
    -> L=2 2 0 0:     0.000 sec done=        99 (=100.0%) skipped=         0 
    -> L=3 0 0 0:     0.001 sec done=       225 (=100.0%) skipped=         0 
    -> L=3 2 0 0:     0.001 sec done=        66 (=100.0%) skipped=         0 
    -> L=3 2 1 0:     0.001 sec done=        58 (=100.0%) skipped=         0 
    -> L=3 2 1 1:     0.001 sec done=        20 (=100.0%) skipped=         0 
    -> L=3 2 2 0:     0.000 sec done=        30 (=100.0%) skipped=         0 
[...]
ROOT   0:  E=     -99.2706501819 Eh
      0.99820 [     0]: 20

                 <<<<<<<<<<<<<<<<<<INITIAL CI STATE CHECK>>>>>>>>>>>>>>>>>>

   E(CAS)=   -99.270650182 Eh DE=    0.000000e+00
   --- Energy gap subspaces: Ext-Act = -1.942   Act-Int = -0.784
   --- current l-shift: Up(Ext-Act) = 3.54   Dn(Act-Int) = 2.38
   N(occ)=  1.99646 0.00354
   ||g|| =     4.363793e+00 Max(G)=    4.158604e+00 Rot=5,0
   --- Orbital Update [SuperCI(PT)]
   --- Canonicalize Internal Space
   --- Canonicalize External Space
   --- SX_PT (Skipped TA=0 IT=0): ||X|| =      0.135645272 Max(X)(4,1) =      0.087593822 
   --- SFit(Active Orbitals)

MACRO-ITERATION   2: 
   --- Inactive Energy E0 = -95.47410053 Eh
CI-ITERATION   0: 
   -99.389173885   0.000000000000 (    0.12)
   CI-PROBLEM SOLVED
   DENSITIES MADE
   E(CAS)=   -99.389173885 Eh DE=   -1.185237e-01
   --- Energy gap subspaces: Ext-Act = -2.096   Act-Int = -0.683
   --- current l-shift: Up(Ext-Act) = 3.20   Dn(Act-Int) = 1.78
   N(occ)=  1.99619 0.00381
   ||g|| =     6.021294e-01 Max(G)=    2.580065e-01 Rot=35,1
   --- Orbital Update [SuperCI(PT)]
   --- Canonicalize Internal Space
   --- Canonicalize External Space
   --- SX_PT (Skipped TA=0 IT=0): ||X|| =      0.066083070 Max(X)(4,1) =      0.041124670 
   --- SFit(Active Orbitals)

MACRO-ITERATION   3: 
   --- Inactive Energy E0 = -95.37398351 Eh
CI-ITERATION   0: 
   -99.394757592   0.000000000000 (    0.17)
   CI-PROBLEM SOLVED
   DENSITIES MADE
   E(CAS)=   -99.394757592 Eh DE=   -5.583707e-03
   --- Energy gap subspaces: Ext-Act = -2.088   Act-Int = -0.714
   --- current l-shift: Up(Ext-Act) = 3.02   Dn(Act-Int) = 1.65
   N(occ)=  1.99607 0.00393
   ||g|| =     2.113983e-01 Max(G)=   -8.329681e-02 Rot=5,1
   --- Orbital Update [SuperCI(PT)]
   --- Canonicalize Internal Space
   --- Canonicalize External Space
   --- SX_PT (Skipped TA=0 IT=0): ||X|| =      0.025384246 Max(X)(16,5) =      0.016973513 
   --- SFit(Active Orbitals)

MACRO-ITERATION   4: 
   --- Inactive Energy E0 = -95.34768257 Eh
CI-ITERATION   0: 
   -99.396212311   0.000000000000 (    0.03)
   CI-PROBLEM SOLVED
   DENSITIES MADE
   E(CAS)=   -99.396212311 Eh DE=   -1.454719e-03
   --- Energy gap subspaces: Ext-Act = -2.120   Act-Int = -0.723
   --- current l-shift: Up(Ext-Act) = 2.72   Dn(Act-Int) = 1.32
   N(occ)=  1.99597 0.00403
   ||g|| =     1.016244e-01 Max(G)=   -5.756657e-02 Rot=5,1
   --- Orbital Update [SuperCI(PT)]
   --- Canonicalize Internal Space
   --- Canonicalize External Space
   --- SX_PT (Skipped TA=0 IT=0): ||X|| =      0.019687434 Max(X)(16,5) =      0.012117791 
   --- SFit(Active Orbitals)

MACRO-ITERATION   5: 
   --- Inactive Energy E0 = -95.30479347 Eh
CI-ITERATION   0: 
   -99.396917895   0.000000000000 (    0.02)
   CI-PROBLEM SOLVED
   DENSITIES MADE
   E(CAS)=   -99.396917895 Eh DE=   -7.055841e-04
   --- Energy gap subspaces: Ext-Act = -2.162   Act-Int = -0.741
   --- current l-shift: Up(Ext-Act) = 2.76   Dn(Act-Int) = 1.34
   N(occ)=  1.99585 0.00415
   ||g|| =     4.615231e-02 Max(G)=    2.165773e-02 Rot=35,1
   --- Orbital Update [SuperCI(PT)]
   --- Canonicalize Internal Space
   --- Canonicalize External Space
   --- SX_PT (Skipped TA=0 IT=0): ||X|| =      0.012575222 Max(X)(4,1) =      0.006829564 
   --- SFit(Active Orbitals)

MACRO-ITERATION   6: 
   --- Inactive Energy E0 = -95.26203837 Eh
CI-ITERATION   0: 
   -99.397027747   0.000000000000 (    0.11)
   CI-PROBLEM SOLVED
   DENSITIES MADE
   E(CAS)=   -99.397027747 Eh DE=   -1.098518e-04
   --- Energy gap subspaces: Ext-Act = -2.182   Act-Int = -0.757
   --- current l-shift: Up(Ext-Act) = 2.78   Dn(Act-Int) = 1.36
   N(occ)=  1.99578 0.00422
   ||g|| =     2.449926e-02 Max(G)=    1.207272e-02 Rot=5,0
   --- Orbital Update [SuperCI(PT)]
   --- Canonicalize Internal Space
   --- Canonicalize External Space
   --- SX_PT (Skipped TA=0 IT=0): ||X|| =      0.004572518 Max(X)(4,1) =      0.002482066 
   --- SFit(Active Orbitals)

MACRO-ITERATION   7: 
   ===>>> Convergence to 3.0e-02 achieved - switching to Step=NR
   --- Inactive Energy E0 = -95.24310523 Eh
CI-ITERATION   0: 
   -99.397027837   0.000000000000 (    0.06)
   CI-PROBLEM SOLVED
   DENSITIES MADE
   E(CAS)=   -99.397027837 Eh DE=   -8.991526e-08
   --- Energy gap subspaces: Ext-Act = -2.189   Act-Int = -0.765
   --- current l-shift: Up(Ext-Act) = 2.79   Dn(Act-Int) = 1.37
   N(occ)=  1.99576 0.00424
   ||g|| =     9.494035e-03 Max(G)=    7.350580e-03 Rot=5,1
   --- Orbital Update [        NR]
   --- SFit(Active Orbitals)

MACRO-ITERATION   8: 
   --- Inactive Energy E0 = -95.24388599 Eh
CI-ITERATION   0: 
   -99.397034449   0.000000000000 (    0.05)
   CI-PROBLEM SOLVED
   DENSITIES MADE
   E(CAS)=   -99.397034449 Eh DE=   -6.612397e-06
   --- Energy gap subspaces: Ext-Act = -2.180   Act-Int = -0.765
   --- current l-shift: Up(Ext-Act) = 2.78   Dn(Act-Int) = 1.36
   N(occ)=  1.99577 0.00423
   ||g|| =     2.816079e-03 Max(G)=   -1.395848e-03 Rot=35,4
   --- Orbital Update [        NR]
   AugHess TrustRadius-Update: Energy-Ratio   1.098 	 TrustRadius 0.500
   --- SFit(Active Orbitals)

MACRO-ITERATION   9: 
   --- Inactive Energy E0 = -95.24451240 Eh
CI-ITERATION   0: 
   -99.397034732   0.000000000000 (    0.07)
   CI-PROBLEM SOLVED
   DENSITIES MADE
   E(CAS)=   -99.397034732 Eh DE=   -2.826835e-07
   --- Energy gap subspaces: Ext-Act = -2.177   Act-Int = -0.764
   --- current l-shift: Up(Ext-Act) = 2.78   Dn(Act-Int) = 1.36
   N(occ)=  1.99578 0.00422
   ||g|| =     9.953931e-04 Max(G)=   -4.936594e-04 Rot=35,4
   --- Orbital Update [        NR]
   AugHess TrustRadius-Update: Energy-Ratio   1.356 	 TrustRadius 0.250
   --- SFit(Active Orbitals)

MACRO-ITERATION  10: 
   --- Inactive Energy E0 = -95.24476222 Eh
CI-ITERATION   0: 
   -99.397034768   0.000000000000 (    0.07)
   CI-PROBLEM SOLVED
   DENSITIES MADE
   E(CAS)=   -99.397034768 Eh DE=   -3.582923e-08
   --- Energy gap subspaces: Ext-Act = -2.176   Act-Int = -0.764
   --- current l-shift: Up(Ext-Act) = 2.78   Dn(Act-Int) = 1.36
   N(occ)=  1.99578 0.00422
   ||g|| =     3.533571e-04 Max(G)=   -1.751896e-04 Rot=35,4
   --- Orbital Update [        NR]
   AugHess TrustRadius-Update: Energy-Ratio   1.357 	 TrustRadius 0.125
   --- SFit(Active Orbitals)

MACRO-ITERATION  11: 
   --- Inactive Energy E0 = -95.24485554 Eh
CI-ITERATION   0: 
   -99.397034772   0.000000000000 (    0.10)
   CI-PROBLEM SOLVED
   DENSITIES MADE
   E(CAS)=   -99.397034772 Eh DE=   -4.552831e-09
   --- Energy gap subspaces: Ext-Act = -2.175   Act-Int = -0.764
   --- current l-shift: Up(Ext-Act) = 2.78   Dn(Act-Int) = 1.36
   N(occ)=  1.99578 0.00422
   ||g|| =     1.257410e-04 Max(G)=   -6.233407e-05 Rot=35,4
                     ---- THE CAS-SCF ENERGY   HAS CONVERGED ----
                     ---- THE CAS-SCF GRADIENT HAS CONVERGED ----
                            --- FINALIZING ORBITALS ---
                    ---- DOING ONE FINAL ITERATION FOR PRINTING ----
   --- Forming Natural Orbitals
   --- Canonicalize Internal Space
   --- Canonicalize External Space

MACRO-ITERATION  12: 
   --- Inactive Energy E0 = -95.24485554 Eh
   --- All densities will be recomputed
CI-ITERATION   0: 
   -99.397034772   0.000000000000 (    0.02)
   CI-PROBLEM SOLVED
   DENSITIES MADE
   E(CAS)=   -99.397034772 Eh DE=   -2.984279e-13
   --- Energy gap subspaces: Ext-Act = -2.179   Act-Int = -0.766
   --- current l-shift: Up(Ext-Act) = 2.78   Dn(Act-Int) = 1.37
   N(occ)=  1.99652 0.00348
   ||g|| =     1.257410e-04 Max(G)=   -7.900566e-05 Rot=35,4
--------------
CASSCF RESULTS
--------------

Final CASSCF energy       : -99.397034772 Eh   -2704.7308 eV


---------------------------------------------
CAS-SCF STATES FOR BLOCK  1 MULT= 1 NROOTS= 1
---------------------------------------------

ROOT   0:  E=     -99.3970347724 Eh
      0.99826 [     0]: 20


--------------
DENSITY MATRIX
--------------

                  0          1    
      0       1.996519   0.000000
      1       0.000000   0.003481
Trace of the electron density:  2.000000

-----------------
ENERGY COMPONENTS
-----------------

One electron energy          :   -156.869926143 Eh       -4268.6477 eV
Two electron energy          :     47.947701621 Eh        1304.7233 eV
Nuclear repulsion energy     :      9.525189749 Eh         259.1936 eV
                               ----------------
                                  -99.397034772

Kinetic energy               :    102.391067719 Eh        2786.2026 eV
Potential energy             :   -201.788102492 Eh       -5490.9334 eV
Virial ratio                 :     -1.970758846 
                               ----------------
                                  -99.397034772

Core energy                  :    -95.244855542 Eh    -2591.7443 eV


----------------------------
LOEWDIN REDUCED ACTIVE MOs  
----------------------------

                      0         1         2         3         4         5   
                 -26.26270  -1.33696  -0.70141  -0.70141  -1.46726   2.40880
                   2.00000   2.00000   2.00000   2.00000   1.99652   0.00348
                  --------  --------  --------  --------  --------  --------
 0 H  s               0.1      10.1       0.0       0.0      31.5      15.2
 0 H  pz              0.7       7.3       0.0       0.0       0.2      16.9
 0 H  px              0.0       0.0       6.6       4.9       0.0       0.0
 0 H  py              0.0       0.0       4.9       6.6       0.0       0.0
 1 F  s              99.1      60.2       0.0       0.0       8.5      13.6
 1 F  pz              0.0      22.4       0.0       0.0      58.9      51.0
 1 F  px              0.0       0.0      50.9      37.6       0.0       0.0
 1 F  py              0.0       0.0      37.6      50.9       0.0       0.0


-------------------------------------------------------------
 Forming the transition density       ... done in 0.134886 sec
-------------------------------------------------------------



==========================================
CASSCF UV, CD spectra and dipole moments
==========================================
-------------------
ABSORPTION SPECTRUM
-------------------

Center of mass           = (  0.0000,  0.0000,  0.8973)
Nuclear contribution to the dipole moment =     0.000000,    0.000000,   -0.468795 au

Calculating the Dipole integrals                  ... done
Transforming integrals                            ... done
Calculating the Linear Momentum integrals         ... done
Transforming integrals                            ... done
Calculating the Angular Momentum integrals        ... done
Transforming integrals                            ... done

------------------------------------------------------------------------------
                                 DIPOLE MOMENTS
------------------------------------------------------------------------------
  Root  Block           TX        TY        TZ           |T|
                      (Debye)   (Debye)   (Debye)      (Debye)
------------------------------------------------------------------------------
    0    0           -0.00000  -0.00000  -1.28193      1.28193

--------------
CASSCF TIMINGS
--------------

Total time                       ...      353.7 sec
Sum of individual times          ...      345.3 sec ( 97.6%)

Calculation of AO operators
   F(Core) operator              ...        0.1 sec (  0.0%)
   G(Act) operator               ...        0.1 sec (  0.0%)
   J(AO) operators               ...        0.0 sec (  0.0%)
Calculation of MO transformed quantities
   J(MO) operators               ...      142.8 sec ( 40.4%)
   (pq|rs) integrals             ...        0.0 sec (  0.0%)
   (ij|ab),(ia|jb) integrals     ...      170.9 sec ( 48.3%)
   AO->MO one electron integrals ...        0.0 sec (  0.0%)
Configuration interaction steps
   CI-setup phase                ...        0.0 sec (  0.0%)
   CI-solution phase             ...       13.7 sec (  3.9%)
   Generation of densities       ...        0.0 sec (  0.0%)
Orbital improvement steps
   Orbital gradient              ...        0.9 sec (  0.3%)
   O(1) converger                ...        0.0 sec (  0.0%)
   O(2) converger                ...       16.6 sec (  4.7%)
Properties                       ...        0.1 sec (  0.0%)
   SOC integral calculation      ...        0.0 sec (  0.0%)
   SSC RMEs (incl. integrals)    ...        0.0 sec (  0.0%)
   SOC RMEs                      ...        0.0 sec (  0.0%)

Maximum memory used throughout the entire CASSCF-calculation: 119.1 MB

-------------------------   --------------------
FINAL SINGLE POINT ENERGY       -99.397034772396
-------------------------   --------------------

Storing actual gbw-file in CASSCF_2.035.gbw ... done

                            ***************************************
                            *     ORCA property calculations      *
                            ***************************************

                                    ---------------------
                                    Active property flags
                                    ---------------------
   (+) Dipole Moment


------------------------------------------------------------------------------
                       ORCA ELECTRIC PROPERTIES CALCULATION
------------------------------------------------------------------------------

Dipole Moment Calculation                       ... on
Quadrupole Moment Calculation                   ... off
Polarizability Calculation                      ... off
GBWName                                         ... CASSCF_2.gbw
Electron density                                ... CASSCF_2.scfp
The origin for moment calculation is the CENTER OF MASS  = ( 0.000000,  0.000000  0.897256)

-------------
DIPOLE MOMENT
-------------
                                X             Y             Z
Electronic contribution:     -0.00000      -0.00000      -0.03555
Nuclear contribution   :      0.00000       0.00000      -0.46879
                        -----------------------------------------
Total Dipole Moment    :     -0.00000      -0.00000      -0.50434
                        -----------------------------------------
Magnitude (a.u.)       :      0.50434
Magnitude (Debye)      :      1.28193



--------------------
Rotational spectrum 
--------------------
 
Rotational constants in cm-1:     0.000000    70.444768    70.444768 
Rotational constants in MHz :     0.000000 2111881.006407 2111881.006407 

 Dipole components along the rotational axes: 
x,y,z [a.u.] :    -0.504340    -0.000000    -0.000000 
x,y,z [Debye]:    -1.281931    -0.000000    -0.000000 

 
                              **** TRAJECTORY DONE ***

                         SUMMARY OF THE CALCULATED SURFACE

------------------
TRAJECTORY RESULTS
------------------

Column   1: R

The Calculated Surface using the 'Actual Energy'
   4.00000000 -99.90697296
   3.89705882 -99.90696785
   3.79411765 -99.90696003
   3.69117647 -99.90694836
   3.58823529 -99.90693129
   3.48529412 -99.90690661
   3.38235294 -99.90687118
   3.27941176 -99.90682055
   3.17647059 -99.90674844
   3.07352941 -99.90664605
   2.97058824 -99.90650123
   2.86764706 -99.90629736
   2.76470588 -99.90601188
   2.66176471 -99.90561421
   2.55882353 -99.90506289
   2.45588235 -99.91068019
   2.35294118 -99.91225198
   2.25000000 -99.91445601
   2.14705882 -99.91752034
   2.04411765 -99.92173562
   1.94117647 -99.92745535
   1.83823529 -99.93508264
   1.73529412 -99.94503744
   1.63235294 -99.95770071
   1.52941176 -99.97333592
   1.42647059 -99.99198790
   1.32352941 -100.01334413
   1.22058824 -100.03650617
   1.11764706 -100.05956579
   1.01470588 -100.07877455
   0.91176471 -100.08684553
   0.80882353 -100.06951200
   0.70588235 -99.99879547
   0.60294118 -99.81718020
   0.50000000 -99.39703477

                        *******************************
                        *   FIT OF THE ACT-ENERGY PES *
                        *******************************
-------------------------------
POTENTIAL ENERGY SURFACE =   0
-------------------------------

Minimum found after 20 iterations
Equilibrium distance and its energy from the interpolated PES:
  Re      =   0.91510 Angstroem  (  1.72929 Bohr)
  E(Re)   =  -100.086856 Eh 
  dE/dR   = -4.342e-08 (-1.993e-02 CHEB)
  d2E/dR2 =    0.542773 (   0.534288 CHEB) (   0.962541 NUM)
  d3E/dR3 =   -1.056049 (  50.776677 CHEB)

Spectroscopic constants:
  we =    3885.5 cm**-1 (based on SPLINE)
  we =    3855.1 cm**-1 (based on CHEB)
  we =    5174.3 cm**-1 (based on NUM)

Performing Morse fit ...
Morse-Fit Results:
 Te(adiabatic)   =   -1042.0 cm**-1         = -0.129 eV
 d2E/dR**2 (Morse)=      0.721264888 
 d3E/dR**3 (Morse)=     -3.009049406 
 d4E/dR**4 (Morse)=      9.763811292 
 E0               =   -100.091604114 Eh  RMS=2.97e-06
 Re               =   0.90847 Angstroem      =  1.71675 Bohr RMS=4.72e-06)
 De(Morse)        =   5.07445 eV             =  40928.2 cm**-1 RMS=5.13e-06
 D0(Morse)        =   4.79678 eV
 beta             =   1.39064 au          RMS=1.72e-05
 we               =   4479.1 cm**-1
 wexe             =    122.5 cm**-1
 Displacement   =   -0.0066 Angstroem      = -0.01254 Bohr

The Calculated Surface using the SCF energy
   4.00000000 -99.90697296
   3.89705882 -99.90696785
   3.79411765 -99.90696003
   3.69117647 -99.90694836
   3.58823529 -99.90693129
   3.48529412 -99.90690661
   3.38235294 -99.90687118
   3.27941176 -99.90682055
   3.17647059 -99.90674844
   3.07352941 -99.90664605
   2.97058824 -99.90650123
   2.86764706 -99.90629736
   2.76470588 -99.90601188
   2.66176471 -99.90561421
   2.55882353 -99.90506289
   2.45588235 -99.91068019
   2.35294118 -99.91225198
   2.25000000 -99.91445601
   2.14705882 -99.91752034
   2.04411765 -99.92173562
   1.94117647 -99.92745535
   1.83823529 -99.93508264
   1.73529412 -99.94503744
   1.63235294 -99.95770071
   1.52941176 -99.97333592
   1.42647059 -99.99198790
   1.32352941 -100.01334413
   1.22058824 -100.03650617
   1.11764706 -100.05956579
   1.01470588 -100.07877455
   0.91176471 -100.08684553
   0.80882353 -100.06951200
   0.70588235 -99.99879547
   0.60294118 -99.81718020
   0.50000000 -99.39703477

                        *******************************
                        *       FIT OF THE SCF PES    *
                        *******************************
-------------------------------
POTENTIAL ENERGY SURFACE =   0
-------------------------------

Minimum found after 20 iterations
Equilibrium distance and its energy from the interpolated PES:
  Re      =   0.91510 Angstroem  (  1.72929 Bohr)
  E(Re)   =  -100.086856 Eh 
  dE/dR   = -4.342e-08 (-1.993e-02 CHEB)
  d2E/dR2 =    0.542773 (   0.534288 CHEB) (   0.962541 NUM)
  d3E/dR3 =   -1.056049 (  50.776677 CHEB)

Spectroscopic constants:
  we =    3885.5 cm**-1 (based on SPLINE)
  we =    3855.1 cm**-1 (based on CHEB)
  we =    5174.3 cm**-1 (based on NUM)

Performing Morse fit ...
Morse-Fit Results:
 Te(adiabatic)   =   -1042.0 cm**-1         = -0.129 eV
 d2E/dR**2 (Morse)=      0.721264888 
 d3E/dR**3 (Morse)=     -3.009049406 
 d4E/dR**4 (Morse)=      9.763811292 
 E0               =   -100.091604114 Eh  RMS=2.97e-06
 Re               =   0.90847 Angstroem      =  1.71675 Bohr RMS=4.72e-06)
 De(Morse)        =   5.07445 eV             =  40928.2 cm**-1 RMS=5.13e-06
 D0(Morse)        =   4.79678 eV
 beta             =   1.39064 au          RMS=1.72e-05
 we               =   4479.1 cm**-1
 wexe             =    122.5 cm**-1
 Displacement   =   -0.0066 Angstroem      = -0.01254 Bohr


Timings for individual modules:

Sum of individual times         ...     9522.955 sec (= 158.716 min)
GTO integral calculation        ...       74.345 sec (=   1.239 min)   0.8 %
SCF iterations                  ...       22.551 sec (=   0.376 min)   0.2 %
CASSCF iterations               ...     9426.059 sec (= 157.101 min)  99.0 %
                             ****ORCA TERMINATED NORMALLY****
TOTAL RUN TIME: 0 days 2 hours 40 minutes 20 seconds 363 msec
