
                                 *****************
                                 * O   R   C   A *
                                 *****************

                                            #,                                       
                                            ###                                      
                                            ####                                     
                                            #####                                    
                                            ######                                   
                                           ########,                                 
                                     ,,################,,,,,                         
                               ,,#################################,,                 
                          ,,##########################################,,             
                       ,#########################################, ''#####,          
                    ,#############################################,,   '####,        
                  ,##################################################,,,,####,       
                ,###########''''           ''''###############################       
              ,#####''   ,,,,##########,,,,          '''####'''          '####       
            ,##' ,,,,###########################,,,                        '##       
           ' ,,###''''                  '''############,,,                           
         ,,##''                                '''############,,,,        ,,,,,,###''
      ,#''                                            '''#######################'''  
     '                                                          ''''####''''         
             ,#######,   #######,   ,#######,      ##                                
            ,#'     '#,  ##    ##  ,#'     '#,    #''#        ######   ,####,        
            ##       ##  ##   ,#'  ##            #'  '#       #        #'  '#        
            ##       ##  #######   ##           ,######,      #####,   #    #        
            '#,     ,#'  ##    ##  '#,     ,#' ,#      #,         ##   #,  ,#        
             '#######'   ##     ##  '#######'  #'      '#     #####' # '####'        



                  #######################################################
                  #                        -***-                        #
                  #          Department of theory and spectroscopy      #
                  #    Directorship and core code : Frank Neese         #
                  #        Max Planck Institute fuer Kohlenforschung    #
                  #                Kaiser Wilhelm Platz 1               #
                  #                 D-45470 Muelheim/Ruhr               #
                  #                      Germany                        #
                  #                                                     #
                  #                  All rights reserved                #
                  #                        -***-                        #
                  #######################################################


                         Program Version 5.0.2 -  RELEASE  -


 With contributions from (in alphabetic order):
   Daniel Aravena         : Magnetic Suceptibility
   Michael Atanasov       : Ab Initio Ligand Field Theory (pilot matlab implementation)
   Alexander A. Auer      : GIAO ZORA, VPT2 properties, NMR spectrum
   Ute Becker             : Parallelization
   Giovanni Bistoni       : ED, misc. LED, open-shell LED, HFLD
   Martin Brehm           : Molecular dynamics
   Dmytro Bykov           : SCF Hessian
   Vijay G. Chilkuri      : MRCI spin determinant printing, contributions to CSF-ICE
   Dipayan Datta          : RHF DLPNO-CCSD density
   Achintya Kumar Dutta   : EOM-CC, STEOM-CC
   Dmitry Ganyushin       : Spin-Orbit,Spin-Spin,Magnetic field MRCI
   Miquel Garcia          : C-PCM and meta-GGA Hessian, CC/C-PCM, Gaussian charge scheme
   Yang Guo               : DLPNO-NEVPT2, F12-NEVPT2, CIM, IAO-localization
   Andreas Hansen         : Spin unrestricted coupled pair/coupled cluster methods
   Benjamin Helmich-Paris : MC-RPA, TRAH-SCF, COSX integrals
   Lee Huntington         : MR-EOM, pCC
   Robert Izsak           : Overlap fitted RIJCOSX, COSX-SCS-MP3, EOM
   Marcus Kettner         : VPT2
   Christian Kollmar      : KDIIS, OOCD, Brueckner-CCSD(T), CCSD density, CASPT2, CASPT2-K
   Simone Kossmann        : Meta GGA functionals, TD-DFT gradient, OOMP2, MP2 Hessian
   Martin Krupicka        : Initial AUTO-CI
   Lucas Lang             : DCDCAS
   Marvin Lechner         : AUTO-CI (C++ implementation), FIC-MRCC
   Dagmar Lenk            : GEPOL surface, SMD
   Dimitrios Liakos       : Extrapolation schemes; Compound Job, initial MDCI parallelization
   Dimitrios Manganas     : Further ROCIS development; embedding schemes
   Dimitrios Pantazis     : SARC Basis sets
   Anastasios Papadopoulos: AUTO-CI, single reference methods and gradients
   Taras Petrenko         : DFT Hessian,TD-DFT gradient, ASA, ECA, R-Raman, ABS, FL, XAS/XES, NRVS
   Peter Pinski           : DLPNO-MP2, DLPNO-MP2 Gradient
   Christoph Reimann      : Effective Core Potentials
   Marius Retegan         : Local ZFS, SOC
   Christoph Riplinger    : Optimizer, TS searches, QM/MM, DLPNO-CCSD(T), (RO)-DLPNO pert. Triples
   Tobias Risthaus        : Range-separated hybrids, TD-DFT gradient, RPA, STAB
   Michael Roemelt        : Original ROCIS implementation
   Masaaki Saitow         : Open-shell DLPNO-CCSD energy and density
   Barbara Sandhoefer     : DKH picture change effects
   Avijit Sen             : IP-ROCIS
   Kantharuban Sivalingam : CASSCF convergence, NEVPT2, FIC-MRCI
   Bernardo de Souza      : ESD, SOC TD-DFT
   Georgi Stoychev        : AutoAux, RI-MP2 NMR, DLPNO-MP2 response
   Willem Van den Heuvel  : Paramagnetic NMR
   Boris Wezisla          : Elementary symmetry handling
   Frank Wennmohs         : Technical directorship


 We gratefully acknowledge several colleagues who have allowed us to
 interface, adapt or use parts of their codes:
   Stefan Grimme, W. Hujo, H. Kruse, P. Pracht,  : VdW corrections, initial TS optimization,
                  C. Bannwarth, S. Ehlert          DFT functionals, gCP, sTDA/sTD-DF
   Ed Valeev, F. Pavosevic, A. Kumar             : LibInt (2-el integral package), F12 methods
   Garnet Chan, S. Sharma, J. Yang, R. Olivares  : DMRG
   Ulf Ekstrom                                   : XCFun DFT Library
   Mihaly Kallay                                 : mrcc  (arbitrary order and MRCC methods)
   Jiri Pittner, Ondrej Demel                    : Mk-CCSD
   Frank Weinhold                                : gennbo (NPA and NBO analysis)
   Christopher J. Cramer and Donald G. Truhlar   : smd solvation model
   Lars Goerigk                                  : TD-DFT with DH, B97 family of functionals
   V. Asgeirsson, H. Jonsson                     : NEB implementation
   FAccTs GmbH                                   : IRC, NEB, NEB-TS, DLPNO-Multilevel, CI-OPT
                                                   MM, QMMM, 2- and 3-layer-ONIOM, Crystal-QMMM,
                                                   LR-CPCM, SF, NACMEs, symmetry and pop. for TD-DFT,
                                                   nearIR, NL-DFT gradient (VV10), updates on ESD,
                                                   ML-optimized integration grids
   S Lehtola, MJT Oliveira, MAL Marques          : LibXC Library
   Liviu Ungur et al                             : ANISO software


 Your calculation uses the libint2 library for the computation of 2-el integrals
 For citations please refer to: http://libint.valeyev.net

 Your ORCA version has been built with support for libXC version: 5.1.0
 For citations please refer to: https://tddft.org/programs/libxc/

 This ORCA versions uses:
   CBLAS   interface :  Fast vector & matrix operations
   LAPACKE interface :  Fast linear algebra routines
   SCALAPACK package :  Parallel linear algebra routines
   Shared memory     :  Shared parallel matrices
   BLAS/LAPACK       :  OpenBLAS 0.3.15  USE64BITINT DYNAMIC_ARCH NO_AFFINITY Haswell SINGLE_THREADED
        Core in use  :  Haswell
   Copyright (c) 2011-2014, The OpenBLAS Project


================================================================================

----- Orbital basis set information -----
Your calculation utilizes the basis: def2-TZVP
   F. Weigend and R. Ahlrichs, Phys. Chem. Chem. Phys. 7, 3297 (2005).

================================================================================
                                        WARNINGS
                       Please study these warnings very carefully!
================================================================================


INFO   : the flag for use of the SHARK integral package has been found!

================================================================================
                                       INPUT FILE
================================================================================
NAME = CASSCF_6.in
|  1> ! RHF def2-TZVP TightSCF Conv
|  2> 
|  3> %casscf
|  4>   nel 6
|  5>   norb 6
|  6>   switchstep nr
|  7> end
|  8> 
|  9> %paras R= 4.0,0.5,35 end
| 10> 
| 11> * xyz 0 1
| 12> H 0 0 0
| 13> F 0 0 {R}
| 14> **                         ****END OF INPUT****
================================================================================

                       ******************************
                       * Parameter Scan Calculation *
                       ******************************

Trajectory settings:
    -> SCF surface will be mapped

There are 1 parameter(s) to be scanned
             R: range=   4.00000000 ..   0.50000000  steps=   35
There will be   35 energy evaluations


         *************************************************************
                                TRAJECTORY STEP   1
                  R  :   4.00000000
         *************************************************************
---------------------------------
CARTESIAN COORDINATES (ANGSTROEM)
---------------------------------
  H      0.000000    0.000000    0.000000
  F      0.000000    0.000000    4.000000

----------------------------
CARTESIAN COORDINATES (A.U.)
----------------------------
  NO LB      ZA    FRAG     MASS         X           Y           Z
   0 H     1.0000    0     1.008    0.000000    0.000000    0.000000
   1 F     9.0000    0    18.998    0.000000    0.000000    7.558905

--------------------------------
INTERNAL COORDINATES (ANGSTROEM)
--------------------------------
 H      0   0   0     0.000000000000     0.00000000     0.00000000
 F      1   0   0     4.000000000000     0.00000000     0.00000000

---------------------------
INTERNAL COORDINATES (A.U.)
---------------------------
 H      0   0   0     0.000000000000     0.00000000     0.00000000
 F      1   0   0     7.558904535685     0.00000000     0.00000000

---------------------
BASIS SET INFORMATION
---------------------
There are 2 groups of distinct atoms

 Group   1 Type H   : 5s1p contracted to 3s1p pattern {311/1}
 Group   2 Type F   : 11s6p2d1f contracted to 5s3p2d1f pattern {62111/411/11/1}

Atom   0H    basis set group =>   1
Atom   1F    basis set group =>   2
------------------------------------------------------------------------------
                           ORCA GTO INTEGRAL CALCULATION
------------------------------------------------------------------------------
------------------------------------------------------------------------------
                   ___                                                        
                  /   \      - P O W E R E D   B Y -                         
                 /     \                                                     
                 |  |  |   _    _      __       _____    __    __             
                 |  |  |  | |  | |    /  \     |  _  \  |  |  /  |          
                  \  \/   | |  | |   /    \    | | | |  |  | /  /          
                 / \  \   | |__| |  /  /\  \   | |_| |  |  |/  /          
                |  |  |   |  __  | /  /__\  \  |    /   |      \           
                |  |  |   | |  | | |   __   |  |    \   |  |\   \          
                \     /   | |  | | |  |  |  |  | |\  \  |  | \   \       
                 \___/    |_|  |_| |__|  |__|  |_| \__\ |__|  \__/        
                                                                              
                      - O R C A' S   B I G   F R I E N D -                    
                                      &                                       
                       - I N T E G R A L  F E E D E R -                       
                                                                              
 v1 FN, 2020, v2 2021                                                         
------------------------------------------------------------------------------


Reading SHARK input file CASSCF_6.SHARKINP.tmp ... ok
----------------------
SHARK INTEGRAL PACKAGE
----------------------

Number of atoms                             ...      2
Number of basis functions                   ...     37
Number of shells                            ...     15
Maximum angular momentum                    ...      3
Integral batch strategy                     ... SHARK/LIBINT Hybrid
RI-J (if used) integral strategy            ... SPLIT-RIJ (Revised 2003 algorithm where possible)
Printlevel                                  ...      1
Contraction scheme used                     ... SEGMENTED contraction
Coulomb Range Separation                    ... NOT USED
Exchange Range Separation                   ... NOT USED
Finite Nucleus Model                        ... NOT USED
Auxiliary Coulomb fitting basis             ... NOT available
Auxiliary J/K fitting basis                 ... NOT available
Auxiliary Correlation fitting basis         ... NOT available
Auxiliary 'external' fitting basis          ... NOT available
Integral threshold                          ...     2.500000e-11
Primitive cut-off                           ...     2.500000e-12
Primitive pair pre-selection threshold      ...     2.500000e-12

Calculating pre-screening integrals         ... done (  0.1 sec) Dimension = 15
Organizing shell pair data                  ... done (  0.2 sec)
Shell pair information
Total number of shell pairs                 ...       120
Shell pairs after pre-screening             ...       109
Total number of primitive shell pairs       ...       376
Primitive shell pairs kept                  ...       311
          la=0 lb=0:     33 shell pairs
          la=1 lb=0:     28 shell pairs
          la=1 lb=1:      9 shell pairs
          la=2 lb=0:     15 shell pairs
          la=2 lb=1:      7 shell pairs
          la=2 lb=2:      3 shell pairs
          la=3 lb=0:      7 shell pairs
          la=3 lb=1:      4 shell pairs
          la=3 lb=2:      2 shell pairs
          la=3 lb=3:      1 shell pairs

Calculating one electron integrals          ... done (  0.0 sec)
Calculating Nuclear repulsion               ... done (  0.1 sec) ENN=      1.190648718675 Eh
Calculating 4-index integrals               ... 
    -> SHARK/Ints2Disk: Thresh =     2.500000e-11 TCut=    2.500000e-12 
    -> calling libint FockFlag=2 Lmax_loc=3
    -> L=0 0 1 3:     0.000 sec done=       116 (=100.0%) skipped=         0 
    -> L=0 1 0 3:     0.000 sec done=       191 (=100.0%) skipped=         0 
    -> L=0 1 1 3:     0.000 sec done=        85 (=100.0%) skipped=         0 
    -> L=0 1 2 2:     0.000 sec done=        84 (=100.0%) skipped=         0 
    -> L=0 1 3 3:     0.000 sec done=        28 (=100.0%) skipped=         0 
    -> L=0 2 0 3:     0.000 sec done=       100 (=100.0%) skipped=         0 
    -> L=0 2 1 3:     0.000 sec done=        45 (=100.0%) skipped=         0 
    -> L=0 2 2 2:     0.000 sec done=        45 (=100.0%) skipped=         0 
    -> L=0 3 0 3:     0.000 sec done=        27 (=100.0%) skipped=         0 
    -> L=0 3 1 1:     0.000 sec done=        62 (=100.0%) skipped=         0 
    -> L=0 3 1 2:     0.000 sec done=        48 (=100.0%) skipped=         0 
    -> L=0 3 1 3:     0.000 sec done=        21 (=100.0%) skipped=         0 
    -> L=0 3 2 2:     0.000 sec done=        21 (=100.0%) skipped=         0 
    -> L=1 1 1 2:     0.000 sec done=        62 (=100.0%) skipped=         0 
    -> L=1 1 1 3:     0.000 sec done=        33 (=100.0%) skipped=         0 
    -> L=1 1 2 2:     0.000 sec done=        27 (=100.0%) skipped=         0 
    -> L=1 2 1 2:     0.000 sec done=        27 (=100.0%) skipped=         0 
    -> L=1 2 1 3:     0.000 sec done=        22 (=100.0%) skipped=         0 
    -> L=1 2 2 2:     0.000 sec done=        21 (=100.0%) skipped=         0 
    -> L=1 3 1 3:     0.000 sec done=         6 (=100.0%) skipped=         0 
    -> L=1 3 2 2:     0.000 sec done=        12 (=100.0%) skipped=         0 
    -> L=2 2 2 2:     0.000 sec done=         6 (=100.0%) skipped=         0 
    ->Total LIBINT loop time =    0.005 sec
    -> L=0 0 0 0:     0.000 sec done=       530 (=100.0%) skipped=         0 
    -> L=1 0 0 0:     0.000 sec done=       880 (=100.0%) skipped=         0 
    -> L=1 0 1 0:     0.000 sec done=       389 (=100.0%) skipped=         0 
    -> L=1 1 0 0:     0.000 sec done=       289 (=100.0%) skipped=         0 
    -> L=1 1 1 0:     0.000 sec done=       246 (=100.0%) skipped=         0 
    -> L=1 1 1 1:     0.000 sec done=        44 (=100.0%) skipped=         0 
    -> L=2 0 0 0:     0.000 sec done=       466 (=100.0%) skipped=         0 
    -> L=2 0 1 0:     0.000 sec done=       395 (=100.0%) skipped=         0 
    -> L=2 0 1 1:     0.000 sec done=       131 (=100.0%) skipped=         0 
    -> L=2 0 2 0:     0.000 sec done=       110 (=100.0%) skipped=         0 
    -> L=2 1 0 0:     0.000 sec done=       224 (=100.0%) skipped=         0 
    -> L=2 1 1 0:     0.000 sec done=       190 (=100.0%) skipped=         0 
    -> L=2 1 2 0:     0.000 sec done=       101 (=100.0%) skipped=         0 
    -> L=2 2 0 0:     0.000 sec done=        99 (=100.0%) skipped=         0 
    -> L=3 0 0 0:     0.000 sec done=       222 (=100.0%) skipped=         0 
    -> L=3 2 0 0:     0.000 sec done=        66 (=100.0%) skipped=         0 
    -> L=3 2 1 0:     0.000 sec done=        56 (=100.0%) skipped=         0 
    -> L=3 2 1 1:     0.000 sec done=        18 (=100.0%) skipped=         0 
    -> L=3 2 2 0:     0.000 sec done=        30 (=100.0%) skipped=         0 
    -> L=3 2 2 1:     0.000 sec done=        14 (=100.0%) skipped=         0 
    -> L=3 2 2 2:     0.000 sec done=         6 (=100.0%) skipped=         0 
    -> L=3 2 3 0:     0.000 sec done=        14 (=100.0%) skipped=         0 
    -> L=3 2 3 1:     0.000 sec done=         6 (=100.0%) skipped=         0 
    -> L=3 2 3 2:     0.000 sec done=         3 (=100.0%) skipped=         0 
    -> L=3 3 0 0:     0.000 sec done=        33 (=100.0%) skipped=         0 
    -> L=3 3 1 1:     0.000 sec done=         9 (=100.0%) skipped=         0 
    -> L=3 3 2 0:     0.000 sec done=        15 (=100.0%) skipped=         0 
    -> L=3 3 2 1:     0.000 sec done=         7 (=100.0%) skipped=         0 
    -> L=3 3 2 2:     0.000 sec done=         3 (=100.0%) skipped=         0 
    -> L=3 3 3 0:     0.000 sec done=         7 (=100.0%) skipped=         0 
    -> L=3 3 3 1:     0.000 sec done=         4 (=100.0%) skipped=         0 
    -> L=3 3 3 2:     0.000 sec done=         2 (=100.0%) skipped=         0 
    -> L=3 3 3 3:     0.000 sec done=         1 (=100.0%) skipped=         0 
    ->Total SHARK integral loop time =    0.008 sec
    -> Total Integral generation matrix time =    0.469 sec
    -> Number of small integrals   =      2154
    -> Number of medium integrals  =      3595
    -> Number of large integrals   =     21091
    -> Number of MB stored         =         0 MB


SHARK setup successfully completed in   1.5 seconds

Maximum memory used throughout the entire GTOINT-calculation: 36.8 MB
-------------------------------------------------------------------------------
                                 ORCA SCF
-------------------------------------------------------------------------------

------------
SCF SETTINGS
------------
Hamiltonian:
 Ab initio Hamiltonian  Method          .... Hartree-Fock(GTOs)


General Settings:
 Integral files         IntName         .... CASSCF_6
 Hartree-Fock type      HFTyp           .... CASSCF
 Total Charge           Charge          ....    0
 Multiplicity           Mult            ....    1
 Number of Electrons    NEL             ....   10
 Basis Dimension        Dim             ....   37
 Nuclear Repulsion      ENuc            ....      1.1906487187 Eh


Diagonalization of the overlap matrix:
Smallest eigenvalue                        ... 3.084e-02
Time for diagonalization                   ...    0.000 sec
Threshold for overlap eigenvalues          ... 1.000e-08
Number of eigenvalues below threshold      ... 0
Time for construction of square roots      ...    0.102 sec
Total time needed                          ...    0.103 sec

Time for model grid setup =    0.139 sec

------------------------------
INITIAL GUESS: MODEL POTENTIAL
------------------------------
Loading Hartree-Fock densities                     ... done
Calculating cut-offs                               ... done
Initializing the effective Hamiltonian             ... done
Setting up the integral package (SHARK)            ... done
Starting the Coulomb interaction                   ... done (   0.2 sec)
Reading the grid                                   ... done
Mapping shells                                     ... done
Starting the XC term evaluation                    ... done (   0.0 sec)
Transforming the Hamiltonian                       ... done (   0.0 sec)
Diagonalizing the Hamiltonian                      ... done (   0.0 sec)
Back transforming the eigenvectors                 ... done (   0.0 sec)
Now organizing SCF variables                       ... done
                      ------------------
                      INITIAL GUESS DONE (   0.3 sec)
                      ------------------


 ... the calculation is a CASSCF calculation -I'm leaving here GOOD LUCK!!!

-------------------------------------------------------------------------------
                              ORCA-CASSCF
-------------------------------------------------------------------------------

Setting up the integral package       ... done
Building the CAS space                ... done (141 configurations for Mult=1)

SYSTEM-SPECIFIC SETTINGS:
Number of active electrons          ...    6
Number of active orbitals           ...    6
Total number of electrons           ...   10
Total number of orbitals            ...   37

Determined orbital ranges:
   Internal       0 -    1 (   2 orbitals)
   Active         2 -    7 (   6 orbitals)
   External       8 -   36 (  29 orbitals)
Number of rotation parameters      ...    244

CI-STEP:
CI strategy                         ... General CI
Number of multiplicity blocks       ...    1
BLOCK  1 WEIGHT=   1.0000
  Multiplicity                      ...    1
  #(Configurations)                 ...  141
  #(CSFs)                           ...  175
  #(Roots)                          ...    1
    ROOT=0 WEIGHT=    1.000000

  PrintLevel                        ...    1
  N(GuessMat)                       ...       512
  MaxDim(CI)                        ...        10
  MaxIter(CI)                       ...        64
  Energy Tolerance CI               ...  2.50e-09
  Residual Tolerance CI             ...  2.50e-09
  Shift(CI)                         ...  1.00e-04

INTEGRAL-TRANSFORMATION-STEP:
  Algorithm                         ... EXACT

ORBITAL-IMPROVEMENT-STEP:
  Algorithm                         ... SuperCI(PT)
  Default Parametrization           ... CAYLEY
  Act-Act rotations                 ... depends on algorithm used
  FreezeIE                          ... 95.00% of ||g||
  Until reaching FreezeIE rotations with active orbitals are damped. 

  Approx. Fock at                   ... 0.000000e+00 density convergence
  Level shift                       ... energy gap dependent. Minimum=0.600

  Note: SuperCI(PT) will ignore FreezeIE, FreezeAct and FreezeGrad. In general Default settings are encouraged.
        In conjunction with ShiftUp, ShiftDn or GradScaling the performance of SuperCI(PT) is less optimal.  

  MaxRot                            ... 2.00e-01 
  Max. no of vectors (DIIS)         ... 15
  DThresh (cut-off) metric          ... 1.00e-06
  Switch step at gradient           ...  3.00e-02 
  Switch step at iteration          ...        50   
  Switch step to                    ... NR    

  Newton-Raphson/Augmented Hessian solver details:
  Solver                            ... 0
  Tol                               ... 1.0e-06
  Max. no of iterations             ... 35
  PrintLevel                        ... 1
  N(GuessMat)                       ... 512
  ExactDiagSwitch                   ... 512
  Diagonal Hessian Shift            ... 0.000e+00
  Secular equation safety shift     ... 1.000e-04
  Denominator shift in update       ... 1.000e-04
  Cutoff for Hessian matrix storage ... 2.500e-11
  Max. memory for integral trafo    ... 1024
  Max. no of expansion vectors      ... 35
  Max. DIIS vectors                 ... 12
  Preconditioner                    ... CASSCF-FOCKIAN
  SubMatrix initial guess+update    ... ON


SCF-SETTINGS:
  Incremental                       ... off
  RIJCOSX approximation             ... off
  RI-JK approximation               ... off
  AO integral handling              ... CONVENTIONAL
  Integral Neglect Thresh           ...  2.50e-11
  Primitive cutoff TCut             ...  2.50e-12
  Energy convergence tolerance      ...  2.50e-08
  Orbital gradient convergence      ...  2.50e-04
  Max. number of iterations         ...        75  


FINAL ORBITALS:
  Active   Orbitals                 ... natural 
  Internal Orbitals                 ... canonical 
  External Orbitals                 ... canonical 

------------------
CAS-SCF ITERATIONS
------------------


MACRO-ITERATION   1: 
   --- Inactive Energy E0 = -86.74489465 Eh
CI-ITERATION   0: 
   -99.894651388   0.000000000000 (    0.15)
   CI-PROBLEM SOLVED
   DENSITIES MADE

                 <<<<<<<<<<<<<<<<<<INITIAL CI STATE CHECK>>>>>>>>>>>>>>>>>>

BLOCK  1 MULT= 1 NROOTS= 1 
ROOT   0:  E=     -99.8946513875 Eh
      0.99017 [    45]: 122100
      0.00869 [    46]: 122010

                 <<<<<<<<<<<<<<<<<<INITIAL CI STATE CHECK>>>>>>>>>>>>>>>>>>

   E(CAS)=   -99.894651388 Eh DE=    0.000000e+00
   --- Energy gap subspaces: Ext-Act = 0.047   Act-Int = 0.864
   --- current l-shift: Up(Ext-Act) = 1.55   Dn(Act-Int) = 1.00
   N(occ)=  1.00007 1.99965 1.99965 0.99107 0.00882 0.00075
   ||g|| =     1.164287e+00 Max(G)=   -8.078621e-01 Rot=36,0
   --- Orbital Update [SuperCI(PT)]
   --- Canonicalize Internal Space
   --- Canonicalize External Space
   --- SX_PT (Skipped TA=0 IT=0): ||X|| =      4.218980525 Max(X)(10,6) =      3.761992250 
   --- SFit(Active Orbitals)

MACRO-ITERATION   2: 
   --- Inactive Energy E0 = -86.80234796 Eh
CI-ITERATION   0: 
   -99.825664584   0.000000000000 (    0.05)
   CI-PROBLEM SOLVED
   DENSITIES MADE
   E(CAS)=   -99.825664584 Eh DE=    6.898680e-02
   --- Energy gap subspaces: Ext-Act = -0.514   Act-Int = 0.865
   --- current l-shift: Up(Ext-Act) = 1.61   Dn(Act-Int) = 0.50
   N(occ)=  0.99782 1.99929 1.99929 0.90091 0.08608 0.01660
   ||g|| =     1.016389e+00 Max(G)=    8.973372e-01 Rot=24,5
   --- Orbital Update [SuperCI(PT)]
   --- Canonicalize Internal Space
   --- Canonicalize External Space
   --- SX_PT (Skipped TA=0 IT=0): ||X|| =      1.076394860 Max(X)(8,6) =     -0.988030620 
   --- SFit(Active Orbitals)

MACRO-ITERATION   3: 
   --- Inactive Energy E0 = -86.79335819 Eh
CI-ITERATION   0: 
   -99.815326832   0.000000000000 (    0.10)
   CI-PROBLEM SOLVED
   DENSITIES MADE
   E(CAS)=   -99.815326832 Eh DE=    1.033775e-02
   --- Energy gap subspaces: Ext-Act = -1.489   Act-Int = 0.866
   --- current l-shift: Up(Ext-Act) = 2.42   Dn(Act-Int) = 0.33
   N(occ)=  1.01305 1.99925 1.99925 0.89146 0.08651 0.01049
   ||g|| =     5.487582e-01 Max(G)=   -4.894994e-01 Rot=10,5
   --- Orbital Update [SuperCI(PT)]
   --- Canonicalize Internal Space
   --- Canonicalize External Space
   --- SX_PT (Skipped TA=0 IT=0): ||X|| =      0.698896662 Max(X)(8,6) =      0.687479000 
   --- SFit(Active Orbitals)

MACRO-ITERATION   4: 
   --- Inactive Energy E0 = -86.79999712 Eh
CI-ITERATION   0: 
   -99.863891353   0.000000000000 (    0.12)
   CI-PROBLEM SOLVED
   DENSITIES MADE
   E(CAS)=   -99.863891353 Eh DE=   -4.856452e-02
   --- Energy gap subspaces: Ext-Act = -2.118   Act-Int = 0.867
   --- current l-shift: Up(Ext-Act) = 2.72   Dn(Act-Int) = 0.00
   N(occ)=  1.00926 1.99930 1.99930 0.90519 0.08022 0.00674
   ||g|| =     4.794083e-01 Max(G)=   -3.921221e-01 Rot=10,5
   --- Orbital Update [SuperCI(PT)]
   --- Canonicalize Internal Space
   --- Canonicalize External Space
   --- SX_PT (Skipped TA=0 IT=0): ||X|| =      0.426842198 Max(X)(8,6) =      0.400871889 
   --- SFit(Active Orbitals)

MACRO-ITERATION   5: 
   --- Inactive Energy E0 = -86.79613270 Eh
CI-ITERATION   0: 
   -99.900320685   0.000000000000 (    0.13)
   CI-PROBLEM SOLVED
   DENSITIES MADE
   E(CAS)=   -99.900320685 Eh DE=   -3.642933e-02
   --- Energy gap subspaces: Ext-Act = -1.830   Act-Int = 0.867
   --- current l-shift: Up(Ext-Act) = 2.43   Dn(Act-Int) = 0.00
   N(occ)=  1.00205 1.99928 1.99928 0.89987 0.09210 0.00741
   ||g|| =     2.978036e-01 Max(G)=   -2.038365e-01 Rot=10,5
   --- Orbital Update [SuperCI(PT)]
   --- Canonicalize Internal Space
   --- Canonicalize External Space
   --- SX_PT (Skipped TA=0 IT=0): ||X|| =      0.123631432 Max(X)(24,6) =      0.069005213 
   --- SFit(Active Orbitals)

MACRO-ITERATION   6: 
   --- Inactive Energy E0 = -86.80192443 Eh
CI-ITERATION   0: 
   -99.908709724   0.000000000000 (    0.05)
   CI-PROBLEM SOLVED
   DENSITIES MADE
   E(CAS)=   -99.908709724 Eh DE=   -8.389039e-03
   --- Energy gap subspaces: Ext-Act = -1.230   Act-Int = 0.867
   --- current l-shift: Up(Ext-Act) = 1.83   Dn(Act-Int) = 0.00
   N(occ)=  0.99778 1.99919 1.99919 0.87627 0.11765 0.00991
   ||g|| =     9.009820e-02 Max(G)=   -6.263594e-02 Rot=10,5
   --- Orbital Update [SuperCI(PT)]
   --- Canonicalize Internal Space
   --- Canonicalize External Space
   --- SX_PT (Skipped TA=0 IT=0): ||X|| =      0.076363063 Max(X)(8,6) =     -0.065586934 
   --- SFit(Active Orbitals)

MACRO-ITERATION   7: 
   --- Inactive Energy E0 = -86.79185845 Eh
CI-ITERATION   0: 
   -99.901800745   0.000000000000 (    0.10)
   CI-PROBLEM SOLVED
   DENSITIES MADE
   E(CAS)=   -99.901800745 Eh DE=    6.908978e-03
   --- Energy gap subspaces: Ext-Act = -1.380   Act-Int = 0.867
   --- current l-shift: Up(Ext-Act) = 1.98   Dn(Act-Int) = 0.00
   N(occ)=  0.99611 1.99914 1.99914 0.84858 0.14729 0.00974
   ||g|| =     3.217909e-01 Max(G)=    2.287012e-01 Rot=10,5
   --- Orbital Update [SuperCI(PT)]
   --- Canonicalize Internal Space
   --- Canonicalize External Space
   --- SX_PT (Skipped TA=0 IT=0): ||X|| =      0.151925142 Max(X)(8,6) =      0.136614670 
   --- SFit(Active Orbitals)

MACRO-ITERATION   8: 
   --- Inactive Energy E0 = -86.79529176 Eh
CI-ITERATION   0: 
   -99.909435081   0.000000000000 (    0.09)
   CI-PROBLEM SOLVED
   DENSITIES MADE
   E(CAS)=   -99.909435081 Eh DE=   -7.634336e-03
   --- Energy gap subspaces: Ext-Act = -1.336   Act-Int = 0.867
   --- current l-shift: Up(Ext-Act) = 1.94   Dn(Act-Int) = 0.00
   N(occ)=  0.99683 1.99916 1.99917 0.86615 0.12929 0.00939
   ||g|| =     6.636869e-02 Max(G)=    4.991347e-02 Rot=10,5
   --- Orbital Update [SuperCI(PT)]
   --- Canonicalize Internal Space
   --- Canonicalize External Space
   --- SX_PT (Skipped TA=0 IT=0): ||X|| =      0.049011541 Max(X)(8,6) =      0.039403700 
   --- SFit(Active Orbitals)

MACRO-ITERATION   9: 
   --- Inactive Energy E0 = -86.79547748 Eh
CI-ITERATION   0: 
   -99.909512374   0.000000000000 (    0.03)
   CI-PROBLEM SOLVED
   DENSITIES MADE
   E(CAS)=   -99.909512374 Eh DE=   -7.729265e-05
   --- Energy gap subspaces: Ext-Act = -1.339   Act-Int = 0.867
   --- current l-shift: Up(Ext-Act) = 1.94   Dn(Act-Int) = 0.00
   N(occ)=  0.99694 1.99907 1.99917 0.86654 0.12891 0.00936
   ||g|| =     6.091306e-02 Max(G)=    4.578932e-02 Rot=10,5
   --- Orbital Update [SuperCI(PT)]
   --- Canonicalize Internal Space
   --- Canonicalize External Space
   --- SX_PT (Skipped TA=0 IT=0): ||X|| =      0.097333755 Max(X)(10,6) =      0.064543131 
   --- SFit(Active Orbitals)

MACRO-ITERATION  10: 
   --- Inactive Energy E0 = -86.79723747 Eh
CI-ITERATION   0: 
   -99.909913779   0.000000000000 (    0.14)
   CI-PROBLEM SOLVED
   DENSITIES MADE
   E(CAS)=   -99.909913779 Eh DE=   -4.014053e-04
   --- Energy gap subspaces: Ext-Act = -1.355   Act-Int = 0.867
   --- current l-shift: Up(Ext-Act) = 1.95   Dn(Act-Int) = 0.00
   N(occ)=  0.99723 1.99918 1.99918 0.87149 0.12385 0.00906
   ||g|| =     1.261149e-02 Max(G)=   -9.000798e-03 Rot=24,5
   --- Orbital Update [SuperCI(PT)]
   --- Canonicalize Internal Space
   --- Canonicalize External Space
   --- SX_PT (Skipped TA=0 IT=0): ||X|| =      0.008103705 Max(X)(14,6) =      0.004642740 
   --- SFit(Active Orbitals)

MACRO-ITERATION  11: 
   ===>>> Convergence to 3.0e-02 achieved - switching to Step=NR
   --- Inactive Energy E0 = -86.79707379 Eh
CI-ITERATION   0: 
   -99.909919072   0.000000000000 (    0.10)
   CI-PROBLEM SOLVED
   DENSITIES MADE
   E(CAS)=   -99.909919072 Eh DE=   -5.293132e-06
   --- Energy gap subspaces: Ext-Act = -1.375   Act-Int = 0.867
   --- current l-shift: Up(Ext-Act) = 1.97   Dn(Act-Int) = 0.00
   N(occ)=  0.99714 1.99917 1.99917 0.87072 0.12460 0.00919
   ||g|| =     6.408800e-03 Max(G)=   -4.132139e-03 Rot=31,5
   --- Orbital Update [        NR]
   Warning: offending negative eigenvalue - following it
   Warning: offending negative eigenvalue - following it
   Warning: offending negative eigenvalue - following it
   Warning: offending negative eigenvalue - following it
   Warning: offending negative eigenvalue - following it
   Warning: offending negative eigenvalue - following it
   --- SFit(Active Orbitals)

MACRO-ITERATION  12: 
   --- Inactive Energy E0 = -86.79716701 Eh
CI-ITERATION   0: 
   -99.909924486   0.000000000000 (    0.12)
   CI-PROBLEM SOLVED
   DENSITIES MADE
   E(CAS)=   -99.909924486 Eh DE=   -5.413835e-06
   --- Energy gap subspaces: Ext-Act = -1.376   Act-Int = 0.867
   --- current l-shift: Up(Ext-Act) = 1.98   Dn(Act-Int) = 0.00
   N(occ)=  0.99716 1.99917 1.99917 0.87090 0.12435 0.00923
   ||g|| =     2.265461e-03 Max(G)=   -1.432572e-03 Rot=31,5
   --- Orbital Update [        NR]
   AugHess TrustRadius-Update: Energy-Ratio   0.036 	 TrustRadius 1.000
   Warning: offending negative eigenvalue - following it
   --- SFit(Active Orbitals)

MACRO-ITERATION  13: 
   --- Inactive Energy E0 = -85.99023748 Eh
CI-ITERATION   0: 
   -99.924652886   0.000000000000 (    0.25)
   CI-PROBLEM SOLVED
   DENSITIES MADE
   E(CAS)=   -99.924652886 Eh DE=   -1.472840e-02
   --- Energy gap subspaces: Ext-Act = -1.378   Act-Int = 0.319
   --- current l-shift: Up(Ext-Act) = 1.98   Dn(Act-Int) = 0.28
   N(occ)=  1.99114 1.82362 1.17063 0.87231 0.12848 0.01382
   ||g|| =     4.761647e-01 Max(G)=   -3.452624e-01 Rot=24,2
   --- Orbital Update [        NR]
   AugHess TrustRadius-Update: Energy-Ratio   1.556 	 TrustRadius 0.500
   --- SFit(Active Orbitals)

MACRO-ITERATION  14: 
   --- Inactive Energy E0 = -86.02897916 Eh
CI-ITERATION   0: 
   -99.941625027   0.000000000000 (    0.26)
   CI-PROBLEM SOLVED
   DENSITIES MADE
   E(CAS)=   -99.941625027 Eh DE=   -1.697214e-02
   --- Energy gap subspaces: Ext-Act = -1.146   Act-Int = 0.353
   --- current l-shift: Up(Ext-Act) = 1.75   Dn(Act-Int) = 0.25
   N(occ)=  1.99062 1.82173 1.17024 0.87194 0.12964 0.01584
   ||g|| =     1.461299e-01 Max(G)=    9.540645e-02 Rot=22,2
   --- Orbital Update [        NR]
   AugHess TrustRadius-Update: Energy-Ratio   0.779 	 TrustRadius 0.500
   --- SFit(Active Orbitals)

MACRO-ITERATION  15: 
   --- Inactive Energy E0 = -86.26325830 Eh
CI-ITERATION   0: 
   -99.949148467   0.000000000000 (    0.16)
   CI-PROBLEM SOLVED
   DENSITIES MADE
   E(CAS)=   -99.949148467 Eh DE=   -7.523441e-03
   --- Energy gap subspaces: Ext-Act = -0.970   Act-Int = 0.539
   --- current l-shift: Up(Ext-Act) = 1.57   Dn(Act-Int) = 0.06
   N(occ)=  1.98926 1.82037 1.16996 0.87197 0.13095 0.01749
   ||g|| =     4.630113e-02 Max(G)=    3.821894e-02 Rot=22,2
   --- Orbital Update [        NR]
   AugHess TrustRadius-Update: Energy-Ratio   1.232 	 TrustRadius 0.500
   --- SFit(Active Orbitals)

MACRO-ITERATION  16: 
   --- Inactive Energy E0 = -86.45886186 Eh
CI-ITERATION   0: 
   -99.949861727   0.000000000000 (    0.20)
   CI-PROBLEM SOLVED
   DENSITIES MADE
   E(CAS)=   -99.949861727 Eh DE=   -7.132594e-04
   --- Energy gap subspaces: Ext-Act = -0.843   Act-Int = 0.687
   --- current l-shift: Up(Ext-Act) = 1.44   Dn(Act-Int) = 0.00
   N(occ)=  1.98894 1.81983 1.16985 0.87194 0.13135 0.01809
   ||g|| =     1.834790e-02 Max(G)=    1.389704e-02 Rot=22,2
   --- Orbital Update [        NR]
   AugHess TrustRadius-Update: Energy-Ratio   1.294 	 TrustRadius 0.500
   --- SFit(Active Orbitals)

MACRO-ITERATION  17: 
   --- Inactive Energy E0 = -86.53269751 Eh
CI-ITERATION   0: 
   -99.949959892   0.000000000000 (    0.11)
   CI-PROBLEM SOLVED
   DENSITIES MADE
   E(CAS)=   -99.949959892 Eh DE=   -9.816515e-05
   --- Energy gap subspaces: Ext-Act = -0.786   Act-Int = 0.741
   --- current l-shift: Up(Ext-Act) = 1.39   Dn(Act-Int) = 0.00
   N(occ)=  1.98875 1.81963 1.16981 0.87194 0.13154 0.01832
   ||g|| =     7.891725e-03 Max(G)=    5.808501e-03 Rot=22,2
   --- Orbital Update [        NR]
   AugHess TrustRadius-Update: Energy-Ratio   1.294 	 TrustRadius 0.500
   --- SFit(Active Orbitals)

MACRO-ITERATION  18: 
   --- Inactive Energy E0 = -86.55522111 Eh
CI-ITERATION   0: 
   -99.949971526   0.000000000000 (    0.07)
   CI-PROBLEM SOLVED
   DENSITIES MADE
   E(CAS)=   -99.949971526 Eh DE=   -1.163365e-05
   --- Energy gap subspaces: Ext-Act = -0.766   Act-Int = 0.757
   --- current l-shift: Up(Ext-Act) = 1.37   Dn(Act-Int) = 0.00
   N(occ)=  1.98868 1.81956 1.16979 0.87194 0.13161 0.01841
   ||g|| =     3.414077e-03 Max(G)=    2.440771e-03 Rot=22,2
   --- Orbital Update [        NR]
   AugHess TrustRadius-Update: Energy-Ratio   1.317 	 TrustRadius 0.250
   --- SFit(Active Orbitals)

MACRO-ITERATION  19: 
   --- Inactive Energy E0 = -86.56029209 Eh
CI-ITERATION   0: 
   -99.949972930   0.000000000000 (    0.07)
   CI-PROBLEM SOLVED
   DENSITIES MADE
   E(CAS)=   -99.949972930 Eh DE=   -1.404281e-06
   --- Energy gap subspaces: Ext-Act = -0.759   Act-Int = 0.761
   --- current l-shift: Up(Ext-Act) = 1.36   Dn(Act-Int) = 0.00
   N(occ)=  1.98866 1.81954 1.16979 0.87194 0.13164 0.01843
   ||g|| =     1.446105e-03 Max(G)=    1.001982e-03 Rot=22,2
   --- Orbital Update [        NR]
   AugHess TrustRadius-Update: Energy-Ratio   1.369 	 TrustRadius 0.125
   --- SFit(Active Orbitals)

MACRO-ITERATION  20: 
   --- Inactive Energy E0 = -86.56132548 Eh
CI-ITERATION   0: 
   -99.949973140   0.000000000000 (    0.12)
   CI-PROBLEM SOLVED
   DENSITIES MADE
   E(CAS)=   -99.949973140 Eh DE=   -2.098966e-07
   --- Energy gap subspaces: Ext-Act = -0.756   Act-Int = 0.762
   --- current l-shift: Up(Ext-Act) = 1.36   Dn(Act-Int) = 0.00
   N(occ)=  1.98865 1.81953 1.16979 0.87194 0.13165 0.01844
   ||g|| =     6.000021e-04 Max(G)=    4.022226e-04 Rot=22,2
   --- Orbital Update [        NR]
   AugHess TrustRadius-Update: Energy-Ratio   1.412 	 TrustRadius 0.062
   --- SFit(Active Orbitals)

MACRO-ITERATION  21: 
   --- Inactive Energy E0 = -86.56150712 Eh
CI-ITERATION   0: 
   -99.949973182   0.000000000000 (    0.01)
   CI-PROBLEM SOLVED
   DENSITIES MADE
   E(CAS)=   -99.949973182 Eh DE=   -4.216261e-08
   --- Energy gap subspaces: Ext-Act = -0.755   Act-Int = 0.762
   --- current l-shift: Up(Ext-Act) = 1.36   Dn(Act-Int) = 0.00
   N(occ)=  1.98865 1.81953 1.16979 0.87194 0.13166 0.01844
   ||g|| =     2.490420e-04 Max(G)=    1.593233e-04 Rot=22,2
                     ---- THE CAS-SCF GRADIENT HAS CONVERGED ----
                            --- FINALIZING ORBITALS ---
                    ---- DOING ONE FINAL ITERATION FOR PRINTING ----
   --- Forming Natural Orbitals
   --- Canonicalize Internal Space
   --- Canonicalize External Space

MACRO-ITERATION  22: 
   --- Inactive Energy E0 = -86.56150712 Eh
   --- All densities will be recomputed
CI-ITERATION   0: 
   -99.949973182   0.000000000000 (    0.08)
   CI-PROBLEM SOLVED
   DENSITIES MADE
   E(CAS)=   -99.949973182 Eh DE=    2.447109e-11
   --- Energy gap subspaces: Ext-Act = -1.250   Act-Int = 0.684
   --- current l-shift: Up(Ext-Act) = 1.85   Dn(Act-Int) = 0.00
   N(occ)=  1.98980 1.98936 1.00000 1.00000 0.01063 0.01021
   ||g|| =     2.490420e-04 Max(G)=   -1.532919e-04 Rot=21,2
   --- Number of divergent steps = 3
--------------
CASSCF RESULTS
--------------

Final CASSCF energy       : -99.949973182 Eh   -2719.7770 eV

----------------
ORBITAL ENERGIES
----------------

  NO   OCC          E(Eh)            E(eV) 
   0   2.0000     -26.389595      -718.0974 
   1   2.0000      -1.485366       -40.4189 
   2   1.9898      -0.707448       -19.2506 
   3   1.9894      -0.800884       -21.7932 
   4   1.0000      -0.261596        -7.1184 
   5   1.0000      -0.290188        -7.8964 
   6   0.0106       1.644567        44.7509 
   7   0.0102       1.634106        44.4663 
   8   0.0000       0.394159        10.7256 
   9   0.0000       0.642039        17.4708 
  10   0.0000       0.678001        18.4493 
  11   0.0000       1.662126        45.2288 
  12   0.0000       1.662153        45.2295 
  13   0.0000       1.662218        45.2313 
  14   0.0000       2.203220        59.9527 
  15   0.0000       2.207564        60.0709 
  16   0.0000       2.207582        60.0714 
  17   0.0000       2.212480        60.2046 
  18   0.0000       2.213578        60.2345 
  19   0.0000       2.527787        68.7846 
  20   0.0000       2.618145        71.2433 
  21   0.0000       2.634465        71.6874 
  22   0.0000       3.530569        96.0717 
  23   0.0000       3.769130       102.5632 
  24   0.0000       7.284367       198.2177 
  25   0.0000       7.291194       198.4035 
  26   0.0000       7.291269       198.4055 
  27   0.0000       7.311604       198.9588 
  28   0.0000       7.311604       198.9589 
  29   0.0000       7.345658       199.8855 
  30   0.0000       7.345660       199.8856 
  31   0.0000       8.733722       237.6566 
  32   0.0000       8.752828       238.1766 
  33   0.0000       8.752912       238.1788 
  34   0.0000       8.768102       238.5922 
  35   0.0000       8.773882       238.7495 
  36   0.0000      57.874287      1574.8394 


---------------------------------------------
CAS-SCF STATES FOR BLOCK  1 MULT= 1 NROOTS= 1
---------------------------------------------

ROOT   0:  E=     -99.9499731819 Eh
      0.48211 [     0]: 222000
      0.48211 [     4]: 220200
      0.02524 [     1]: 221100


--------------
DENSITY MATRIX
--------------

                  0          1          2          3          4          5    
      0       1.989804  -0.000000  -0.000000   0.000000   0.000000   0.000000
      1      -0.000000   1.989357  -0.000000   0.000000   0.000000  -0.000000
      2      -0.000000  -0.000000   1.000003  -0.000000  -0.000000   0.000000
      3       0.000000   0.000000  -0.000000   0.999998  -0.000000  -0.000000
      4       0.000000   0.000000  -0.000000  -0.000000   0.010630  -0.000000
      5       0.000000  -0.000000   0.000000  -0.000000  -0.000000   0.010209
Trace of the electron density:  6.000000

-----------------
ENERGY COMPONENTS
-----------------

One electron energy          :   -142.036125525 Eh       -3864.9995 eV
Two electron energy          :     40.895503624 Eh        1112.8232 eV
Nuclear repulsion energy     :      1.190648719 Eh          32.3992 eV
                               ----------------
                                  -99.949973182

Kinetic energy               :     99.950430963 Eh        2719.7895 eV
Potential energy             :   -199.900404145 Eh       -5439.5665 eV
Virial ratio                 :     -1.999995420 
                               ----------------
                                  -99.949973182

Core energy                  :    -86.561507117 Eh    -2355.4584 eV


----------------------------
LOEWDIN ORBITAL-COMPOSITIONS
----------------------------

                      0         1         2         3         4         5   
                 -26.38959  -1.48537  -0.70745  -0.80088  -0.26160  -0.29019
                   2.00000   2.00000   1.98980   1.98936   1.00000   1.00000
                  --------  --------  --------  --------  --------  --------
 0 H  s               0.0       0.0       0.0       0.0      58.0      42.0
 1 F  s             100.0      89.2       0.0      10.8       0.0       0.0
 1 F  pz              0.0       0.0      99.9       0.1       0.0       0.0
 1 F  px              0.0       1.9       0.0      15.5      34.7      47.9
 1 F  py              0.0       8.9       0.1      73.7       7.3      10.1

                      6         7         8         9        10        11   
                   1.64457   1.63411   0.39416   0.64204   0.67800   1.66213
                   0.01063   0.01021   0.00000   0.00000   0.00000   0.00000
                  --------  --------  --------  --------  --------  --------
 0 H  s               0.0       0.0      99.1       0.8       0.0       0.0
 0 H  px              0.0       0.0       0.0       0.0       0.0      82.6
 0 H  py              0.0       0.0       0.0       0.0       0.0      17.4
 1 F  s              13.2       0.0       0.7      86.0       0.0       0.0
 1 F  pz              0.1      99.5       0.1       0.0       0.0       0.0
 1 F  px             15.0       0.0       0.0       2.3      82.6       0.0
 1 F  py             71.3       0.1       0.1      10.8      17.4       0.0
 1 F  dz2             0.2       0.0       0.0       0.0       0.0       0.0
 1 F  dyz             0.0       0.3       0.0       0.0       0.0       0.0
 1 F  dx2y2           0.1       0.0       0.0       0.0       0.0       0.0
 1 F  dxy             0.1       0.0       0.0       0.0       0.0       0.0

                     12        13        14        15        16        17   
                   1.66215   1.66222   2.20322   2.20756   2.20758   2.21248
                   0.00000   0.00000   0.00000   0.00000   0.00000   0.00000
                  --------  --------  --------  --------  --------  --------
 0 H  pz              0.3      99.7       0.0       0.0       0.0       0.0
 0 H  px             17.3       0.0       0.0       0.0       0.0       0.0
 0 H  py             82.4       0.2       0.0       0.0       0.0       0.0
 1 F  pz              0.0       0.0       0.0       0.0       0.0       1.8
 1 F  dz2             0.0       0.0      24.6       0.0       0.0       0.3
 1 F  dxz             0.0       0.0       0.0      82.6       0.1      17.0
 1 F  dyz             0.0       0.0       0.0      17.3       0.0      80.8
 1 F  dx2y2           0.0       0.0      32.1       0.1      57.3       0.0
 1 F  dxy             0.0       0.0      43.2       0.0      42.6       0.1

                     18        19        20        21        22        23   
                   2.21358   2.52779   2.61814   2.63447   3.53057   3.76913
                   0.00000   0.00000   0.00000   0.00000   0.00000   0.00000
                  --------  --------  --------  --------  --------  --------
 0 H  s               0.0      78.8       1.1      20.1       0.0       0.0
 1 F  s               0.2       0.2       7.9       1.5       0.0      90.2
 1 F  pz              0.0      19.9      14.5      63.9       0.0       0.0
 1 F  px              0.2       0.1      13.0       2.3      82.6       1.7
 1 F  py              1.1       0.6      62.1      11.0      17.4       8.0
 1 F  dz2            74.0       0.0       0.8       0.2       0.0       0.0
 1 F  dxz             0.1       0.1       0.0       0.2       0.0       0.0
 1 F  dyz             0.3       0.4       0.2       0.8       0.0       0.0
 1 F  dx2y2          10.3       0.0       0.1       0.0       0.0       0.0
 1 F  dxy            13.8       0.0       0.2       0.0       0.0       0.0

                     24        25        26        27        28        29   
                   7.28437   7.29119   7.29127   7.31160   7.31160   7.34566
                   0.00000   0.00000   0.00000   0.00000   0.00000   0.00000
                  --------  --------  --------  --------  --------  --------
 1 F  f0              0.0      37.5       0.0       0.0       0.0      60.1
 1 F  f+1            31.1       0.0       1.1       0.1      51.4       0.6
 1 F  f-1             6.5       0.0       5.2       0.0      10.8       2.9
 1 F  f+2             0.0      26.6       0.0      57.2       0.2      15.4
 1 F  f-2             0.0      35.8       0.0      42.5       0.1      20.7
 1 F  f+3             4.8       0.1      86.4       0.0       2.9       0.2
 1 F  f-3            57.5       0.0       7.2       0.1      34.7       0.0

                     30        31        32        33        34        35   
                   7.34566   8.73372   8.75283   8.75291   8.76810   8.77388
                   0.00000   0.00000   0.00000   0.00000   0.00000   0.00000
                  --------  --------  --------  --------  --------  --------
 1 F  pz              0.0       0.0       0.0       0.0       0.3       0.0
 1 F  py              0.0       0.1       0.0       0.0       0.0       0.1
 1 F  dz2             0.0       8.0       0.0       0.0       0.2      91.7
 1 F  dxz             0.0       0.0      82.6       0.1      17.3       0.1
 1 F  dyz             0.0       0.0      17.3       0.0      82.2       0.3
 1 F  dx2y2           0.0      39.1       0.1      57.3       0.0       3.4
 1 F  dxy             0.0      52.7       0.0      42.6       0.0       4.5
 1 F  f0              2.4       0.0       0.0       0.0       0.0       0.0
 1 F  f+1            15.6       0.0       0.0       0.0       0.0       0.0
 1 F  f-1            74.5       0.0       0.0       0.0       0.0       0.0
 1 F  f+2             0.6       0.0       0.0       0.0       0.0       0.0
 1 F  f-2             0.8       0.0       0.0       0.0       0.0       0.0
 1 F  f+3             5.6       0.0       0.0       0.0       0.0       0.0
 1 F  f-3             0.5       0.0       0.0       0.0       0.0       0.0

                     36   
                  57.87429
                   0.00000
                  --------
 1 F  s             100.0

----------------------------
LOEWDIN REDUCED ACTIVE MOs  
----------------------------

                      0         1         2         3         4         5   
                 -26.38959  -1.48537  -0.70745  -0.80088  -0.26160  -0.29019
                   2.00000   2.00000   1.98980   1.98936   1.00000   1.00000
                  --------  --------  --------  --------  --------  --------
 0 H  s               0.0       0.0       0.0       0.0      58.0      42.0
 1 F  s             100.0      89.2       0.0      10.8       0.0       0.0
 1 F  pz              0.0       0.0      99.9       0.1       0.0       0.0
 1 F  px              0.0       1.9       0.0      15.5      34.7      47.9
 1 F  py              0.0       8.9       0.1      73.7       7.3      10.1

                      6         7         8         9        10        11   
                   1.64457   1.63411   0.39416   0.64204   0.67800   1.66213
                   0.01063   0.01021   0.00000   0.00000   0.00000   0.00000
                  --------  --------  --------  --------  --------  --------
 0 H  s               0.0       0.0      99.1       0.8       0.0       0.0
 0 H  px              0.0       0.0       0.0       0.0       0.0      82.6
 0 H  py              0.0       0.0       0.0       0.0       0.0      17.4
 1 F  s              13.2       0.0       0.7      86.0       0.0       0.0
 1 F  pz              0.1      99.5       0.1       0.0       0.0       0.0
 1 F  px             15.0       0.0       0.0       2.3      82.6       0.0
 1 F  py             71.3       0.1       0.1      10.8      17.4       0.0

------------------------------------------------------------------------------
                           ORCA POPULATION ANALYSIS
------------------------------------------------------------------------------
Input electron density              ... CASSCF_6.scfp
BaseName (.gbw .S,...)              ... CASSCF_6

                    ********************************
                    * MULLIKEN POPULATION ANALYSIS *
                    ********************************

-----------------------
MULLIKEN ATOMIC CHARGES
-----------------------
   0 H :   -0.000125
   1 F :    0.000125
Sum of atomic charges:    0.0000000

--------------------------------
MULLIKEN REDUCED ORBITAL CHARGES
--------------------------------
  0 H s       :     1.000125  s :     1.000125
      pz      :     0.000000  p :     0.000000
      px      :     0.000000
      py      :     0.000000
  1 F s       :     4.000265  s :     4.000265
      pz      :     1.999834  p :     4.999426
      px      :     1.173417
      py      :     1.826175
      dz2     :     0.000019  d :     0.000095
      dxz     :     0.000007
      dyz     :     0.000033
      dx2y2   :     0.000016
      dxy     :     0.000021
      f0      :     0.000006  f :     0.000089
      f+1     :     0.000018
      f-1     :     0.000005
      f+2     :     0.000004
      f-2     :     0.000006
      f+3     :     0.000017
      f-3     :     0.000034


                     *******************************
                     * LOEWDIN POPULATION ANALYSIS *
                     *******************************

----------------------
LOEWDIN ATOMIC CHARGES
----------------------
   0 H :   -0.000086
   1 F :    0.000086

-------------------------------
LOEWDIN REDUCED ORBITAL CHARGES
-------------------------------
  0 H s       :     1.000086  s :     1.000086
      pz      :     0.000000  p :     0.000000
      px      :     0.000000
      py      :     0.000000
  1 F s       :     4.000266  s :     4.000266
      pz      :     1.999872  p :     4.999464
      px      :     1.173417
      py      :     1.826175
      dz2     :     0.000019  d :     0.000096
      dxz     :     0.000007
      dyz     :     0.000033
      dx2y2   :     0.000016
      dxy     :     0.000021
      f0      :     0.000006  f :     0.000089
      f+1     :     0.000018
      f-1     :     0.000005
      f+2     :     0.000004
      f-2     :     0.000006
      f+3     :     0.000017
      f-3     :     0.000034


                      *****************************
                      * MAYER POPULATION ANALYSIS *
                      *****************************

  NA   - Mulliken gross atomic population
  ZA   - Total nuclear charge
  QA   - Mulliken gross atomic charge
  VA   - Mayer's total valence
  BVA  - Mayer's bonded valence
  FA   - Mayer's free valence

  ATOM       NA         ZA         QA         VA         BVA        FA
  0 H      1.0001     1.0000    -0.0001     1.0002     0.0002     1.0000
  1 F      8.9999     9.0000     0.0001     1.0832     0.0002     1.0829

  Mayer bond orders larger than 0.100000



-------------------------------------------------------------
 Forming the transition density       ... done in 0.211134 sec
-------------------------------------------------------------



==========================================
CASSCF UV, CD spectra and dipole moments
==========================================
-------------------
ABSORPTION SPECTRUM
-------------------

Center of mass           = (  0.0000,  0.0000,  7.1781)
Nuclear contribution to the dipole moment =     0.000000,    0.000000,   -3.750359 au

Calculating the Dipole integrals                  ... done
Transforming integrals                            ... done
Calculating the Linear Momentum integrals         ... done
Transforming integrals                            ... done
Calculating the Angular Momentum integrals        ... done
Transforming integrals                            ... done

------------------------------------------------------------------------------
                                 DIPOLE MOMENTS
------------------------------------------------------------------------------
  Root  Block           TX        TY        TZ           |T|
                      (Debye)   (Debye)   (Debye)      (Debye)
------------------------------------------------------------------------------
    0    0            0.01267   0.02765   0.00308      0.03058

--------------
CASSCF TIMINGS
--------------

Total time                       ...     1162.7 sec
Sum of individual times          ...     1135.1 sec ( 97.6%)

Calculation of AO operators
   F(Core) operator              ...        1.1 sec (  0.1%)
   G(Act) operator               ...        0.9 sec (  0.1%)
   J(AO) operators               ...        0.0 sec (  0.0%)
Calculation of MO transformed quantities
   J(MO) operators               ...      352.3 sec ( 30.3%)
   (pq|rs) integrals             ...        0.5 sec (  0.0%)
   (ij|ab),(ia|jb) integrals     ...      640.1 sec ( 55.1%)
   AO->MO one electron integrals ...        0.0 sec (  0.0%)
Configuration interaction steps
   CI-setup phase                ...        0.0 sec (  0.0%)
   CI-solution phase             ...       39.7 sec (  3.4%)
   Generation of densities       ...        0.4 sec (  0.0%)
Orbital improvement steps
   Orbital gradient              ...        2.6 sec (  0.2%)
   O(1) converger                ...        0.0 sec (  0.0%)
   O(2) converger                ...       97.2 sec (  8.4%)
Properties                       ...        0.2 sec (  0.0%)
   SOC integral calculation      ...        0.0 sec (  0.0%)
   SSC RMEs (incl. integrals)    ...        0.0 sec (  0.0%)
   SOC RMEs                      ...        0.0 sec (  0.0%)

Maximum memory used throughout the entire CASSCF-calculation: 119.2 MB

-------------------------   --------------------
FINAL SINGLE POINT ENERGY       -99.949973181905
-------------------------   --------------------

Storing actual gbw-file in CASSCF_6.001.gbw ... done

                            ***************************************
                            *     ORCA property calculations      *
                            ***************************************

                                    ---------------------
                                    Active property flags
                                    ---------------------
   (+) Dipole Moment


------------------------------------------------------------------------------
                       ORCA ELECTRIC PROPERTIES CALCULATION
------------------------------------------------------------------------------

Dipole Moment Calculation                       ... on
Quadrupole Moment Calculation                   ... off
Polarizability Calculation                      ... off
GBWName                                         ... CASSCF_6.gbw
Electron density                                ... CASSCF_6.scfp
The origin for moment calculation is the CENTER OF MASS  = ( 0.000000,  0.000000  7.178050)

-------------
DIPOLE MOMENT
-------------
                                X             Y             Z
Electronic contribution:      0.00499       0.01088       3.75157
Nuclear contribution   :      0.00000       0.00000      -3.75036
                        -----------------------------------------
Total Dipole Moment    :      0.00499       0.01088       0.00121
                        -----------------------------------------
Magnitude (a.u.)       :      0.01203
Magnitude (Debye)      :      0.03058



--------------------
Rotational spectrum 
--------------------
 
Rotational constants in cm-1:     0.000000     1.100699     1.100699 
Rotational constants in MHz :     0.000000 32998.140725 32998.140725 

 Dipole components along the rotational axes: 
x,y,z [a.u.] :     0.001212     0.010880     0.004985 
x,y,z [Debye]:     0.003080     0.027655     0.012672 

 

         *************************************************************
                                TRAJECTORY STEP   2
                  R  :   3.89705882
         *************************************************************
---------------------------------
CARTESIAN COORDINATES (ANGSTROEM)
---------------------------------
  H      0.000000    0.000000    0.000000
  F      0.000000    0.000000    3.897059

----------------------------
CARTESIAN COORDINATES (A.U.)
----------------------------
  NO LB      ZA    FRAG     MASS         X           Y           Z
   0 H     1.0000    0     1.008    0.000000    0.000000    0.000000
   1 F     9.0000    0    18.998    0.000000    0.000000    7.364374

--------------------------------
INTERNAL COORDINATES (ANGSTROEM)
--------------------------------
 H      0   0   0     0.000000000000     0.00000000     0.00000000
 F      1   0   0     3.897058823529     0.00000000     0.00000000

---------------------------
INTERNAL COORDINATES (A.U.)
---------------------------
 H      0   0   0     0.000000000000     0.00000000     0.00000000
 F      1   0   0     7.364373904252     0.00000000     0.00000000

------------------------------------------------------------------------------
                   ___                                                        
                  /   \      - P O W E R E D   B Y -                         
                 /     \                                                     
                 |  |  |   _    _      __       _____    __    __             
                 |  |  |  | |  | |    /  \     |  _  \  |  |  /  |          
                  \  \/   | |  | |   /    \    | | | |  |  | /  /          
                 / \  \   | |__| |  /  /\  \   | |_| |  |  |/  /          
                |  |  |   |  __  | /  /__\  \  |    /   |      \           
                |  |  |   | |  | | |   __   |  |    \   |  |\   \          
                \     /   | |  | | |  |  |  |  | |\  \  |  | \   \       
                 \___/    |_|  |_| |__|  |__|  |_| \__\ |__|  \__/        
                                                                              
                      - O R C A' S   B I G   F R I E N D -                    
                                      &                                       
                       - I N T E G R A L  F E E D E R -                       
                                                                              
 v1 FN, 2020, v2 2021                                                         
------------------------------------------------------------------------------


Reading SHARK input file CASSCF_6.SHARKINP.tmp ... ok
----------------------
SHARK INTEGRAL PACKAGE
----------------------

Number of atoms                             ...      2
Number of basis functions                   ...     37
Number of shells                            ...     15
Maximum angular momentum                    ...      3
Integral batch strategy                     ... SHARK/LIBINT Hybrid
RI-J (if used) integral strategy            ... SPLIT-RIJ (Revised 2003 algorithm where possible)
Printlevel                                  ...      1
Contraction scheme used                     ... SEGMENTED contraction
Coulomb Range Separation                    ... NOT USED
Exchange Range Separation                   ... NOT USED
Finite Nucleus Model                        ... NOT USED
Auxiliary Coulomb fitting basis             ... NOT available
Auxiliary J/K fitting basis                 ... NOT available
Auxiliary Correlation fitting basis         ... NOT available
Auxiliary 'external' fitting basis          ... NOT available
Integral threshold                          ...     2.500000e-11
Primitive cut-off                           ...     2.500000e-12
Primitive pair pre-selection threshold      ...     2.500000e-12

Calculating pre-screening integrals         ... done (  0.0 sec) Dimension = 15
Organizing shell pair data                  ... done (  0.2 sec)
Shell pair information
Total number of shell pairs                 ...       120
Shell pairs after pre-screening             ...       110
Total number of primitive shell pairs       ...       376
Primitive shell pairs kept                  ...       312
          la=0 lb=0:     33 shell pairs
          la=1 lb=0:     29 shell pairs
          la=1 lb=1:      9 shell pairs
          la=2 lb=0:     15 shell pairs
          la=2 lb=1:      7 shell pairs
          la=2 lb=2:      3 shell pairs
          la=3 lb=0:      7 shell pairs
          la=3 lb=1:      4 shell pairs
          la=3 lb=2:      2 shell pairs
          la=3 lb=3:      1 shell pairs

Calculating one electron integrals          ... done (  0.0 sec)
Calculating Nuclear repulsion               ... done (  0.1 sec) ENN=      1.222099816904 Eh
Calculating 4-index integrals               ... 
    -> SHARK/Ints2Disk: Thresh =     2.500000e-11 TCut=    2.500000e-12 
    -> calling libint FockFlag=2 Lmax_loc=3
    -> L=0 0 1 3:     0.001 sec done=       120 (=100.0%) skipped=         0 
    -> L=0 1 0 3:     0.001 sec done=       191 (=100.0%) skipped=         0 
    -> L=0 1 1 3:     0.001 sec done=        98 (=100.0%) skipped=         0 
    -> L=0 1 2 2:     0.001 sec done=        86 (=100.0%) skipped=         0 
    -> L=0 1 3 3:     0.000 sec done=        29 (=100.0%) skipped=         0 
    -> L=0 2 0 3:     0.001 sec done=       100 (=100.0%) skipped=         0 
    -> L=0 2 1 3:     0.001 sec done=        52 (=100.0%) skipped=         0 
    -> L=0 2 2 2:     0.000 sec done=        45 (=100.0%) skipped=         0 
    -> L=0 3 0 3:     0.000 sec done=        27 (=100.0%) skipped=         0 
    -> L=0 3 1 1:     0.001 sec done=        62 (=100.0%) skipped=         0 
    -> L=0 3 1 2:     0.001 sec done=        48 (=100.0%) skipped=         0 
    -> L=0 3 1 3:     0.001 sec done=        24 (=100.0%) skipped=         0 
    -> L=0 3 2 2:     0.001 sec done=        21 (=100.0%) skipped=         0 
    -> L=1 1 1 2:     0.001 sec done=        62 (=100.0%) skipped=         0 
    -> L=1 1 1 3:     0.001 sec done=        34 (=100.0%) skipped=         0 
    -> L=1 1 2 2:     0.000 sec done=        27 (=100.0%) skipped=         0 
    -> L=1 2 1 2:     0.001 sec done=        27 (=100.0%) skipped=         0 
    -> L=1 2 1 3:     0.001 sec done=        27 (=100.0%) skipped=         0 
    -> L=1 2 2 2:     0.001 sec done=        21 (=100.0%) skipped=         0 
    -> L=1 3 1 3:     0.000 sec done=         9 (=100.0%) skipped=         0 
    -> L=1 3 2 2:     0.001 sec done=        12 (=100.0%) skipped=         0 
    -> L=2 2 2 2:     0.000 sec done=         6 (=100.0%) skipped=         0 
    ->Total LIBINT loop time =    0.140 sec
    -> L=0 0 0 0:     0.000 sec done=       536 (=100.0%) skipped=         0 
    -> L=1 0 0 0:     0.001 sec done=       902 (=100.0%) skipped=         0 
    -> L=1 0 1 0:     0.001 sec done=       394 (=100.0%) skipped=         0 
    -> L=1 1 0 0:     0.000 sec done=       290 (=100.0%) skipped=         0 
    -> L=1 1 1 0:     0.001 sec done=       250 (=100.0%) skipped=         0 
    -> L=1 1 1 1:     0.000 sec done=        44 (=100.0%) skipped=         0 
    -> L=2 0 0 0:     0.000 sec done=       472 (=100.0%) skipped=         0 
    -> L=2 0 1 0:     0.001 sec done=       400 (=100.0%) skipped=         0 
    -> L=2 0 1 1:     0.001 sec done=       131 (=100.0%) skipped=         0 
    -> L=2 0 2 0:     0.000 sec done=       111 (=100.0%) skipped=         0 
    -> L=2 1 0 0:     0.000 sec done=       225 (=100.0%) skipped=         0 
    -> L=2 1 1 0:     0.001 sec done=       192 (=100.0%) skipped=         0 
    -> L=2 1 2 0:     0.000 sec done=       102 (=100.0%) skipped=         0 
    -> L=2 2 0 0:     0.000 sec done=        99 (=100.0%) skipped=         0 
    -> L=3 0 0 0:     0.000 sec done=       225 (=100.0%) skipped=         0 
    -> L=3 2 0 0:     0.000 sec done=        66 (=100.0%) skipped=         0 
    -> L=3 2 1 0:     0.000 sec done=        56 (=100.0%) skipped=         0 
    -> L=3 2 1 1:     0.000 sec done=        18 (=100.0%) skipped=         0 
    -> L=3 2 2 0:     0.000 sec done=        30 (=100.0%) skipped=         0 
    -> L=3 2 2 1:     0.000 sec done=        14 (=100.0%) skipped=         0 
    -> L=3 2 2 2:     0.000 sec done=         6 (=100.0%) skipped=         0 
    -> L=3 2 3 0:     0.000 sec done=        14 (=100.0%) skipped=         0 
    -> L=3 2 3 1:     0.000 sec done=         8 (=100.0%) skipped=         0 
    -> L=3 2 3 2:     0.000 sec done=         3 (=100.0%) skipped=         0 
    -> L=3 3 0 0:     0.000 sec done=        33 (=100.0%) skipped=         0 
    -> L=3 3 1 1:     0.000 sec done=         9 (=100.0%) skipped=         0 
    -> L=3 3 2 0:     0.000 sec done=        15 (=100.0%) skipped=         0 
    -> L=3 3 2 1:     0.000 sec done=         7 (=100.0%) skipped=         0 
    -> L=3 3 2 2:     0.000 sec done=         3 (=100.0%) skipped=         0 
    -> L=3 3 3 0:     0.000 sec done=         7 (=100.0%) skipped=         0 
    -> L=3 3 3 1:     0.000 sec done=         4 (=100.0%) skipped=         0 
    -> L=3 3 3 2:     0.000 sec done=         2 (=100.0%) skipped=         0 
    -> L=3 3 3 3:     0.000 sec done=         1 (=100.0%) skipped=         0 
    ->Total SHARK integral loop time =    0.013 sec
    -> Total Integral generation matrix time =    0.592 sec
    -> Number of small integrals   =      2251
    -> Number of medium integrals  =      3610
    -> Number of large integrals   =     21502
    -> Number of MB stored         =         0 MB


SHARK setup successfully completed in   2.4 seconds

Maximum memory used throughout the entire GTOINT-calculation: 36.8 MB

Diagonalization of the overlap matrix:
Smallest eigenvalue                        ... 3.083e-02
Time for diagonalization                   ...    0.002 sec
Threshold for overlap eigenvalues          ... 1.000e-08
Number of eigenvalues below threshold      ... 0
Time for construction of square roots      ...    0.131 sec
Total time needed                          ...    0.135 sec



 ... the calculation is a CASSCF calculation -I'm leaving here GOOD LUCK!!!

-------------------------------------------------------------------------------
                              ORCA-CASSCF
-------------------------------------------------------------------------------

Setting up the integral package       ... done
Building the CAS space                ... done (141 configurations for Mult=1)

SYSTEM-SPECIFIC SETTINGS:
Number of active electrons          ...    6
Number of active orbitals           ...    6
Total number of electrons           ...   10
Total number of orbitals            ...   37

Determined orbital ranges:
   Internal       0 -    1 (   2 orbitals)
   Active         2 -    7 (   6 orbitals)
   External       8 -   36 (  29 orbitals)
Number of rotation parameters      ...    244

CI-STEP:
CI strategy                         ... General CI
Number of multiplicity blocks       ...    1
BLOCK  1 WEIGHT=   1.0000
  Multiplicity                      ...    1
  #(Configurations)                 ...  141
  #(CSFs)                           ...  175
  #(Roots)                          ...    1
    ROOT=0 WEIGHT=    1.000000

  PrintLevel                        ...    1
  N(GuessMat)                       ...       512
  MaxDim(CI)                        ...        10
  MaxIter(CI)                       ...        64
  Energy Tolerance CI               ...  2.50e-09
  Residual Tolerance CI             ...  2.50e-09
  Shift(CI)                         ...  1.00e-04

INTEGRAL-TRANSFORMATION-STEP:
  Algorithm                         ... EXACT

ORBITAL-IMPROVEMENT-STEP:
  Algorithm                         ... SuperCI(PT)
  Default Parametrization           ... CAYLEY
  Act-Act rotations                 ... depends on algorithm used
  FreezeIE                          ... 95.00% of ||g||
  Until reaching FreezeIE rotations with active orbitals are damped. 

  Approx. Fock at                   ... 0.000000e+00 density convergence
  Level shift                       ... energy gap dependent. Minimum=0.600

  Note: SuperCI(PT) will ignore FreezeIE, FreezeAct and FreezeGrad. In general Default settings are encouraged.
        In conjunction with ShiftUp, ShiftDn or GradScaling the performance of SuperCI(PT) is less optimal.  

  MaxRot                            ... 2.00e-01 
  Max. no of vectors (DIIS)         ... 15
  DThresh (cut-off) metric          ... 1.00e-06
  Switch step at gradient           ...  3.00e-02 
  Switch step at iteration          ...        50   
  Switch step to                    ... NR    

  Newton-Raphson/Augmented Hessian solver details:
  Solver                            ... 0
  Tol                               ... 1.0e-06
  Max. no of iterations             ... 35
  PrintLevel                        ... 1
  N(GuessMat)                       ... 512
  ExactDiagSwitch                   ... 512
  Diagonal Hessian Shift            ... 0.000e+00
  Secular equation safety shift     ... 1.000e-04
  Denominator shift in update       ... 1.000e-04
  Cutoff for Hessian matrix storage ... 2.500e-11
  Max. memory for integral trafo    ... 1024
  Max. no of expansion vectors      ... 35
  Max. DIIS vectors                 ... 12
  Preconditioner                    ... CASSCF-FOCKIAN
  SubMatrix initial guess+update    ... ON


SCF-SETTINGS:
  Incremental                       ... off
  RIJCOSX approximation             ... off
  RI-JK approximation               ... off
  AO integral handling              ... CONVENTIONAL
  Integral Neglect Thresh           ...  2.50e-11
  Primitive cutoff TCut             ...  2.50e-12
  Energy convergence tolerance      ...  2.50e-08
  Orbital gradient convergence      ...  2.50e-04
  Max. number of iterations         ...        75  


FINAL ORBITALS:
  Active   Orbitals                 ... natural 
  Internal Orbitals                 ... canonical 
  External Orbitals                 ... canonical 

------------------
CAS-SCF ITERATIONS
------------------


MACRO-ITERATION   1: 
   --- Inactive Energy E0 = -86.54400360 Eh
CI-ITERATION   0: 
   -99.949967692   0.000000000000 (    0.02)
   CI-PROBLEM SOLVED
   DENSITIES MADE

                 <<<<<<<<<<<<<<<<<<INITIAL CI STATE CHECK>>>>>>>>>>>>>>>>>>

BLOCK  1 MULT= 1 NROOTS= 1 
ROOT   0:  E=     -99.9499676922 Eh
      0.48211 [     0]: 222000
      0.48211 [     4]: 220200
      0.02523 [     1]: 221100

                 <<<<<<<<<<<<<<<<<<INITIAL CI STATE CHECK>>>>>>>>>>>>>>>>>>

   E(CAS)=   -99.949967692 Eh DE=    0.000000e+00
   --- Energy gap subspaces: Ext-Act = -1.250   Act-Int = 0.684
   --- current l-shift: Up(Ext-Act) = 2.85   Dn(Act-Int) = 1.00
   N(occ)=  1.98980 1.98936 1.00000 1.00000 0.01063 0.01021
   ||g|| =     2.500683e-03 Max(G)=    1.226546e-03 Rot=4,1
   --- Orbital Update [SuperCI(PT)]
   --- Canonicalize Internal Space
   --- Canonicalize External Space
   --- SX_PT (Skipped TA=0 IT=0): ||X|| =      0.000617858 Max(X)(4,1) =      0.000380532 
   --- SFit(Active Orbitals)

MACRO-ITERATION   2: 
   ===>>> Convergence to 3.0e-02 achieved - switching to Step=NR
   --- Inactive Energy E0 = -86.54404374 Eh
CI-ITERATION   0: 
   -99.949968223   0.000000000000 (    0.11)
   CI-PROBLEM SOLVED
   DENSITIES MADE
   E(CAS)=   -99.949968223 Eh DE=   -5.304849e-07
   --- Energy gap subspaces: Ext-Act = -1.249   Act-Int = 0.684
   --- current l-shift: Up(Ext-Act) = 2.35   Dn(Act-Int) = 0.50
   N(occ)=  1.98980 1.98936 1.00000 1.00000 0.01063 0.01021
   ||g|| =     3.656337e-04 Max(G)=    1.252698e-04 Rot=21,4
   --- Orbital Update [        NR]
   --- Forming Natural Orbitals

MACRO-ITERATION   3: 
   --- Inactive Energy E0 = -86.54396033 Eh
CI-ITERATION   0: 
   -99.949968249   0.000000000000 (    0.11)
   CI-PROBLEM SOLVED
   DENSITIES MADE
   E(CAS)=   -99.949968249 Eh DE=   -2.599192e-08
   --- Energy gap subspaces: Ext-Act = -1.249   Act-Int = 0.685
   --- current l-shift: Up(Ext-Act) = 2.18   Dn(Act-Int) = 0.33
   N(occ)=  1.98980 1.98935 1.00000 1.00000 0.01063 0.01021
   ||g|| =     8.831491e-05 Max(G)=    4.152998e-05 Rot=21,4
                     ---- THE CAS-SCF GRADIENT HAS CONVERGED ----
                            --- FINALIZING ORBITALS ---
                    ---- DOING ONE FINAL ITERATION FOR PRINTING ----
   --- Forming Natural Orbitals
   --- Canonicalize Internal Space
   --- Canonicalize External Space

MACRO-ITERATION   4: 
   --- Inactive Energy E0 = -86.54396033 Eh
   --- All densities will be recomputed
CI-ITERATION   0: 
   -99.949968249   0.000000000000 (    0.11)
   CI-PROBLEM SOLVED
   DENSITIES MADE
   E(CAS)=   -99.949968249 Eh DE=   -3.309708e-11
   --- Energy gap subspaces: Ext-Act = -1.249   Act-Int = 0.685
   --- current l-shift: Up(Ext-Act) = 1.85   Dn(Act-Int) = 0.00
   N(occ)=  1.98980 1.98935 1.00000 1.00000 0.01063 0.01021
   ||g|| =     8.831500e-05 Max(G)=    4.149333e-05 Rot=21,4
--------------
CASSCF RESULTS
--------------

Final CASSCF energy       : -99.949968249 Eh   -2719.7769 eV


---------------------------------------------
CAS-SCF STATES FOR BLOCK  1 MULT= 1 NROOTS= 1
---------------------------------------------

ROOT   0:  E=     -99.9499682487 Eh
      0.47795 [     0]: 222000
      0.47795 [     4]: 220200
      0.03355 [     1]: 221100


--------------
DENSITY MATRIX
--------------

                  0          1          2          3          4          5    
      0       1.989801   0.000000   0.000000  -0.000000  -0.000000  -0.000000
      1       0.000000   1.989354   0.000000  -0.000000   0.000000   0.000000
      2       0.000000   0.000000   1.000003   0.000000  -0.000000  -0.000000
      3      -0.000000  -0.000000   0.000000   0.999998  -0.000000   0.000000
      4      -0.000000   0.000000  -0.000000  -0.000000   0.010632   0.000000
      5      -0.000000   0.000000  -0.000000   0.000000   0.000000   0.010212
Trace of the electron density:  6.000000

-----------------
ENERGY COMPONENTS
-----------------

One electron energy          :   -142.098950749 Eh       -3866.7090 eV
Two electron energy          :     40.926882683 Eh        1113.6771 eV
Nuclear repulsion energy     :      1.222099817 Eh          33.2550 eV
                               ----------------
                                  -99.949968249

Kinetic energy               :     99.950595188 Eh        2719.7940 eV
Potential energy             :   -199.900563437 Eh       -5439.5709 eV
Virial ratio                 :     -1.999993728 
                               ----------------
                                  -99.949968249

Core energy                  :    -86.543960334 Eh    -2354.9809 eV


----------------------------
LOEWDIN REDUCED ACTIVE MOs  
----------------------------

                      0         1         2         3         4         5   
                 -26.38961  -1.48543  -0.70746  -0.80086  -0.25936  -0.29235
                   2.00000   2.00000   1.98980   1.98935   1.00000   1.00000
                  --------  --------  --------  --------  --------  --------
 0 H  s               0.0       0.0       0.0       0.0      59.2      40.8
[...]
  Integral Neglect Thresh           ...  2.50e-11
  Primitive cutoff TCut             ...  2.50e-12
  Energy convergence tolerance      ...  2.50e-08
  Orbital gradient convergence      ...  2.50e-04
  Max. number of iterations         ...        75  


FINAL ORBITALS:
  Active   Orbitals                 ... natural 
  Internal Orbitals                 ... canonical 
  External Orbitals                 ... canonical 

------------------
CAS-SCF ITERATIONS
------------------


MACRO-ITERATION   1: 
   --- Inactive Energy E0 = -82.34723903 Eh
CI-ITERATION   0: 
   -99.449497575   0.000000000000 (    0.11)
   CI-PROBLEM SOLVED
   DENSITIES MADE

                 <<<<<<<<<<<<<<<<<<INITIAL CI STATE CHECK>>>>>>>>>>>>>>>>>>

BLOCK  1 MULT= 1 NROOTS= 1 
ROOT   0:  E=     -99.4494975746 Eh
      0.98268 [     0]: 222000
      0.00383 [    14]: 211110
      0.00317 [    50]: 121101
      0.00317 [    65]: 112011

                 <<<<<<<<<<<<<<<<<<INITIAL CI STATE CHECK>>>>>>>>>>>>>>>>>>

   E(CAS)=   -99.449497575 Eh DE=    0.000000e+00
   --- Energy gap subspaces: Ext-Act = -1.598   Act-Int = 0.944
   --- current l-shift: Up(Ext-Act) = 3.20   Dn(Act-Int) = 1.00
   N(occ)=  1.98926 1.98804 1.98804 0.01198 0.01198 0.01070
   ||g|| =     1.456929e+00 Max(G)=    1.275753e+00 Rot=7,0
   --- Orbital Update [SuperCI(PT)]
   --- Canonicalize Internal Space
   --- Canonicalize External Space
   --- SX_PT (Skipped TA=0 IT=0): ||X|| =      0.061377876 Max(X)(2,1) =      0.040061097 
   --- SFit(Active Orbitals)

MACRO-ITERATION   2: 
   --- Inactive Energy E0 = -82.39997465 Eh
CI-ITERATION   0: 
   -99.467174914   0.000000000000 (    0.10)
   CI-PROBLEM SOLVED
   DENSITIES MADE
   E(CAS)=   -99.467174914 Eh DE=   -1.767734e-02
   --- Energy gap subspaces: Ext-Act = -1.605   Act-Int = 0.917
   --- current l-shift: Up(Ext-Act) = 2.71   Dn(Act-Int) = 0.50
   N(occ)=  1.98929 1.98818 1.98818 0.01185 0.01185 0.01065
   ||g|| =     1.121994e-01 Max(G)=    5.899865e-02 Rot=7,0
   --- Orbital Update [SuperCI(PT)]
   --- Canonicalize Internal Space
   --- Canonicalize External Space
   --- SX_PT (Skipped TA=0 IT=0): ||X|| =      0.033365620 Max(X)(10,7) =      0.018536664 
   --- SFit(Active Orbitals)

MACRO-ITERATION   3: 
   --- Inactive Energy E0 = -82.40395448 Eh
CI-ITERATION   0: 
   -99.467546413   0.000000000000 (    0.11)
   CI-PROBLEM SOLVED
   DENSITIES MADE
   E(CAS)=   -99.467546413 Eh DE=   -3.714985e-04
   --- Energy gap subspaces: Ext-Act = -1.608   Act-Int = 0.918
   --- current l-shift: Up(Ext-Act) = 2.54   Dn(Act-Int) = 0.33
   N(occ)=  1.98930 1.98817 1.98817 0.01185 0.01185 0.01065
   ||g|| =     2.465816e-02 Max(G)=    1.061921e-02 Rot=7,0
   --- Orbital Update [SuperCI(PT)]
   --- Canonicalize Internal Space
   --- Canonicalize External Space
   --- SX_PT (Skipped TA=0 IT=0): ||X|| =      0.022382105 Max(X)(2,1) =      0.015236401 
   --- SFit(Active Orbitals)

MACRO-ITERATION   4: 
   ===>>> Convergence to 3.0e-02 achieved - switching to Step=NR
   --- Inactive Energy E0 = -82.39933212 Eh
CI-ITERATION   0: 
   -99.467649947   0.000000000000 (    0.05)
   CI-PROBLEM SOLVED
   DENSITIES MADE
   E(CAS)=   -99.467649947 Eh DE=   -1.035339e-04
   --- Energy gap subspaces: Ext-Act = -1.609   Act-Int = 0.907
   --- current l-shift: Up(Ext-Act) = 2.21   Dn(Act-Int) = 0.00
   N(occ)=  1.98931 1.98815 1.98815 0.01187 0.01187 0.01065
   ||g|| =     1.779729e-02 Max(G)=   -9.247425e-03 Rot=7,0
   --- Orbital Update [        NR]
   --- SFit(Active Orbitals)

MACRO-ITERATION   5: 
   --- Inactive Energy E0 = -82.37661861 Eh
CI-ITERATION   0: 
   -99.467725897   0.000000000000 (    0.02)
   CI-PROBLEM SOLVED
   DENSITIES MADE
   E(CAS)=   -99.467725897 Eh DE=   -7.594993e-05
   --- Energy gap subspaces: Ext-Act = -1.596   Act-Int = 0.878
   --- current l-shift: Up(Ext-Act) = 2.20   Dn(Act-Int) = 0.00
   N(occ)=  1.98926 1.98810 1.98810 0.01191 0.01191 0.01071
   ||g|| =     7.253298e-04 Max(G)=   -2.407309e-04 Rot=21,2
   --- Orbital Update [        NR]
   AugHess TrustRadius-Update: Energy-Ratio   1.079 	 TrustRadius 0.500
   --- SFit(Active Orbitals)

MACRO-ITERATION   6: 
   --- Inactive Energy E0 = -82.37529899 Eh
CI-ITERATION   0: 
   -99.467726427   0.000000000000 (    0.09)
   CI-PROBLEM SOLVED
   DENSITIES MADE
   E(CAS)=   -99.467726427 Eh DE=   -5.304339e-07
   --- Energy gap subspaces: Ext-Act = -1.592   Act-Int = 0.876
   --- current l-shift: Up(Ext-Act) = 2.19   Dn(Act-Int) = 0.00
   N(occ)=  1.98925 1.98809 1.98809 0.01193 0.01193 0.01072
   ||g|| =     2.892278e-04 Max(G)=   -1.123204e-04 Rot=21,2
   --- Orbital Update [        NR]
   AugHess TrustRadius-Update: Energy-Ratio   1.165 	 TrustRadius 0.500
   --- SFit(Active Orbitals)

MACRO-ITERATION   7: 
   --- Inactive Energy E0 = -82.37510351 Eh
CI-ITERATION   0: 
   -99.467726447   0.000000000000 (    0.08)
   CI-PROBLEM SOLVED
   DENSITIES MADE
   E(CAS)=   -99.467726447 Eh DE=   -1.962064e-08
   --- Energy gap subspaces: Ext-Act = -1.591   Act-Int = 0.876
   --- current l-shift: Up(Ext-Act) = 2.19   Dn(Act-Int) = 0.00
   N(occ)=  1.98925 1.98809 1.98809 0.01193 0.01193 0.01072
   ||g|| =     1.185873e-04 Max(G)=    4.720997e-05 Rot=18,4
                     ---- THE CAS-SCF ENERGY   HAS CONVERGED ----
                     ---- THE CAS-SCF GRADIENT HAS CONVERGED ----
                            --- FINALIZING ORBITALS ---
                    ---- DOING ONE FINAL ITERATION FOR PRINTING ----
   --- Forming Natural Orbitals
   --- Canonicalize Internal Space
   --- Canonicalize External Space

MACRO-ITERATION   8: 
   --- Inactive Energy E0 = -82.37510351 Eh
   --- All densities will be recomputed
CI-ITERATION   0: 
   -99.467726447   0.000000000000 (    0.12)
   CI-PROBLEM SOLVED
   DENSITIES MADE
   E(CAS)=   -99.467726447 Eh DE=   -2.907541e-11
   --- Energy gap subspaces: Ext-Act = -1.612   Act-Int = 0.876
   --- current l-shift: Up(Ext-Act) = 2.21   Dn(Act-Int) = 0.00
   N(occ)=  1.98927 1.98820 1.98820 0.01181 0.01181 0.01070
   ||g|| =     1.185874e-04 Max(G)=    5.246232e-05 Rot=18,4
--------------
CASSCF RESULTS
--------------

Final CASSCF energy       : -99.467726447 Eh   -2706.6544 eV


---------------------------------------------
CAS-SCF STATES FOR BLOCK  1 MULT= 1 NROOTS= 1
---------------------------------------------

ROOT   0:  E=     -99.4677264466 Eh
      0.98302 [     0]: 222000
      0.00386 [    14]: 211110
      0.00316 [    50]: 121101
      0.00316 [    65]: 112011


--------------
DENSITY MATRIX
--------------

                  0          1          2          3          4          5    
      0       1.989271   0.000000  -0.000000  -0.000000  -0.000000   0.000000
      1       0.000000   1.988200   0.000000  -0.000000   0.000000  -0.000000
      2      -0.000000   0.000000   1.988200   0.000000   0.000000   0.000000
      3      -0.000000  -0.000000   0.000000   0.011815  -0.000000  -0.000000
      4      -0.000000   0.000000   0.000000  -0.000000   0.011815   0.000000
      5       0.000000  -0.000000   0.000000  -0.000000   0.000000   0.010699
Trace of the electron density:  6.000000

-----------------
ENERGY COMPONENTS
-----------------

One electron energy          :   -156.715881381 Eh       -4264.4559 eV
Two electron energy          :     47.722965185 Eh        1298.6079 eV
Nuclear repulsion energy     :      9.525189749 Eh         259.1936 eV
                               ----------------
                                  -99.467726447

Kinetic energy               :    102.456544514 Eh        2787.9843 eV
Potential energy             :   -201.924270961 Eh       -5494.6388 eV
Virial ratio                 :     -1.970828432 
                               ----------------
                                  -99.467726447

Core energy                  :    -82.375103512 Eh    -2241.5405 eV


----------------------------
LOEWDIN REDUCED ACTIVE MOs  
----------------------------

                      0         1         2         3         4         5   
                 -26.27904  -1.84614  -0.97011  -0.70703  -0.70703   1.70754
                   2.00000   2.00000   1.98927   1.98820   1.98820   0.01181
                  --------  --------  --------  --------  --------  --------
 0 H  s               0.2      37.3       4.2       0.0       0.0       0.0
 0 H  px              0.0       0.0       0.0       9.3       2.1       0.6
 0 H  py              0.0       0.0       0.0       2.1       9.3       2.7
 1 F  s              99.1      40.8      27.9       0.0       0.0       0.0
 1 F  pz              0.0      18.4      63.1       0.0       0.0       0.0
 1 F  px              0.0       0.0       0.0      72.6      16.0      16.8
 1 F  py              0.0       0.0       0.0      16.0      72.6      79.3

                      6         7         8         9        10        11   
                   1.70754   1.78556   0.17349   0.72760   0.95991   1.79210
                   0.01181   0.01070   0.00000   0.00000   0.00000   0.00000
                  --------  --------  --------  --------  --------  --------
 0 H  s               0.0       4.1      88.1       9.3      51.4       0.0
 0 H  pz              0.0       0.5       2.4       6.0      22.3       0.0
 0 H  py              0.6       0.0       0.0       0.0       0.0      47.0
 1 F  s               0.0      30.6       2.1      33.3      21.1       0.0
 1 F  pz              0.0      63.4       7.4      38.7       3.5       0.0
 1 F  px             79.3       0.0       0.0       0.0       0.0       0.6
 1 F  py             16.8       0.0       0.0       0.0       0.0      11.5
 1 F  dz2             0.0       1.4       0.0      12.7       1.7       0.0
 1 F  dyz             0.1       0.0       0.0       0.0       0.0      35.6


-------------------------------------------------------------
 Forming the transition density       ... done in 0.106168 sec
-------------------------------------------------------------



==========================================
CASSCF UV, CD spectra and dipole moments
==========================================
-------------------
ABSORPTION SPECTRUM
-------------------

Center of mass           = (  0.0000,  0.0000,  0.8973)
Nuclear contribution to the dipole moment =     0.000000,    0.000000,   -0.468795 au

Calculating the Dipole integrals                  ... done
Transforming integrals                            ... done
Calculating the Linear Momentum integrals         ... done
Transforming integrals                            ... done
Calculating the Angular Momentum integrals        ... done
Transforming integrals                            ... done

------------------------------------------------------------------------------
                                 DIPOLE MOMENTS
------------------------------------------------------------------------------
  Root  Block           TX        TY        TZ           |T|
                      (Debye)   (Debye)   (Debye)      (Debye)
------------------------------------------------------------------------------
    0    0            0.00000   0.00000  -1.32522      1.32522

--------------
CASSCF TIMINGS
--------------

Total time                       ...      258.3 sec
Sum of individual times          ...      251.3 sec ( 97.3%)

Calculation of AO operators
   F(Core) operator              ...        0.1 sec (  0.0%)
   G(Act) operator               ...        0.1 sec (  0.0%)
   J(AO) operators               ...        0.0 sec (  0.0%)
Calculation of MO transformed quantities
   J(MO) operators               ...       85.5 sec ( 33.1%)
   (pq|rs) integrals             ...        0.0 sec (  0.0%)
   (ij|ab),(ia|jb) integrals     ...      140.5 sec ( 54.4%)
   AO->MO one electron integrals ...        0.0 sec (  0.0%)
Configuration interaction steps
   CI-setup phase                ...        0.1 sec (  0.0%)
   CI-solution phase             ...        9.0 sec (  3.5%)
   Generation of densities       ...        0.4 sec (  0.1%)
Orbital improvement steps
   Orbital gradient              ...        0.7 sec (  0.3%)
   O(1) converger                ...        0.1 sec (  0.0%)
   O(2) converger                ...       14.7 sec (  5.7%)
Properties                       ...        0.1 sec (  0.0%)
   SOC integral calculation      ...        0.0 sec (  0.0%)
   SSC RMEs (incl. integrals)    ...        0.0 sec (  0.0%)
   SOC RMEs                      ...        0.0 sec (  0.0%)

Maximum memory used throughout the entire CASSCF-calculation: 119.3 MB

-------------------------   --------------------
FINAL SINGLE POINT ENERGY       -99.467726446625
-------------------------   --------------------

Storing actual gbw-file in CASSCF_6.035.gbw ... done

                            ***************************************
                            *     ORCA property calculations      *
                            ***************************************

                                    ---------------------
                                    Active property flags
                                    ---------------------
   (+) Dipole Moment


------------------------------------------------------------------------------
                       ORCA ELECTRIC PROPERTIES CALCULATION
------------------------------------------------------------------------------

Dipole Moment Calculation                       ... on
Quadrupole Moment Calculation                   ... off
Polarizability Calculation                      ... off
GBWName                                         ... CASSCF_6.gbw
Electron density                                ... CASSCF_6.scfp
The origin for moment calculation is the CENTER OF MASS  = ( 0.000000,  0.000000  0.897256)

-------------
DIPOLE MOMENT
-------------
                                X             Y             Z
Electronic contribution:      0.00000       0.00000      -0.05258
Nuclear contribution   :      0.00000       0.00000      -0.46879
                        -----------------------------------------
Total Dipole Moment    :      0.00000       0.00000      -0.52137
                        -----------------------------------------
Magnitude (a.u.)       :      0.52137
Magnitude (Debye)      :      1.32522



--------------------
Rotational spectrum 
--------------------
 
Rotational constants in cm-1:     0.000000    70.444768    70.444768 
Rotational constants in MHz :     0.000000 2111881.006407 2111881.006407 

 Dipole components along the rotational axes: 
x,y,z [a.u.] :    -0.521370     0.000000     0.000000 
x,y,z [Debye]:    -1.325218     0.000000     0.000000 

 
                              **** TRAJECTORY DONE ***

                         SUMMARY OF THE CALCULATED SURFACE

------------------
TRAJECTORY RESULTS
------------------

Column   1: R

The Calculated Surface using the 'Actual Energy'
   4.00000000 -99.94997318
   3.89705882 -99.94996825
   3.79411765 -99.94996038
   3.69117647 -99.94994834
   3.58823529 -99.94993044
   3.48529412 -99.94990432
   3.38235294 -99.94986667
   3.27941176 -99.94981289
   3.17647059 -99.94973687
   3.07352941 -99.94963535
   2.97058824 -99.94948910
   2.86764706 -99.94928164
   2.76470588 -99.94899145
   2.66176471 -99.94858763
   2.55882353 -99.94802881
   2.45588235 -99.94725882
   2.35294118 -99.94620163
   2.25000000 -99.94475575
   2.14705882 -99.94278727
   2.04411765 -99.96992602
   1.94117647 -99.97756407
   1.83823529 -99.98762471
   1.73529412 -100.00052504
   1.63235294 -100.01655613
   1.52941176 -100.03576896
   1.42647059 -100.05794438
   1.32352941 -100.08248865
   1.22058824 -100.10823652
   1.11764706 -100.13306328
   1.01470588 -100.15307444
   0.91176471 -100.16092623
   0.80882353 -100.14242613
   0.70588235 -100.06982922
   0.60294118 -99.88724371
   0.50000000 -99.46772645

                        *******************************
                        *   FIT OF THE ACT-ENERGY PES *
                        *******************************
-------------------------------
POTENTIAL ENERGY SURFACE =   0
-------------------------------

Minimum found after 13 iterations
Equilibrium distance and its energy from the interpolated PES:
  Re      =   0.91829 Angstroem  (  1.73532 Bohr)
  E(Re)   =  -100.160969 Eh 
  dE/dR   = -4.070e-09 (-1.144e-02 CHEB)
  d2E/dR2 =    0.557854 (  -0.332446 CHEB) (   0.981387 NUM)
  d3E/dR3 =   -1.356579 (  79.311113 CHEB)

Spectroscopic constants:
  we =    3939.2 cm**-1 (based on SPLINE)
  we =      -nan cm**-1 (based on CHEB)
  we =    5224.7 cm**-1 (based on NUM)

Performing Morse fit ...
Morse-Fit Results:
 Te(adiabatic)   =   -1471.2 cm**-1         = -0.182 eV
 d2E/dR**2 (Morse)=      0.769587300 
 d3E/dR**3 (Morse)=     -3.034662043 
 d4E/dR**4 (Morse)=      9.307184079 
 E0               =   -100.167672357 Eh  RMS=9.33e-06
 Re               =   0.90987 Angstroem      =  1.71940 Bohr RMS=3.51e-05)
 De(Morse)        =   6.06061 eV             =  48882.1 cm**-1 RMS=8.61e-06
 D0(Morse)        =   5.77379 eV
 beta             =   1.31441 au          RMS=5.85e-05
 we               =   4626.7 cm**-1
 wexe             =    109.4 cm**-1
 Displacement   =   -0.0084 Angstroem      = -0.01592 Bohr

The Calculated Surface using the SCF energy
   4.00000000 -99.94997318
   3.89705882 -99.94996825
   3.79411765 -99.94996038
   3.69117647 -99.94994834
   3.58823529 -99.94993044
   3.48529412 -99.94990432
   3.38235294 -99.94986667
   3.27941176 -99.94981289
   3.17647059 -99.94973687
   3.07352941 -99.94963535
   2.97058824 -99.94948910
   2.86764706 -99.94928164
   2.76470588 -99.94899145
   2.66176471 -99.94858763
   2.55882353 -99.94802881
   2.45588235 -99.94725882
   2.35294118 -99.94620163
   2.25000000 -99.94475575
   2.14705882 -99.94278727
   2.04411765 -99.96992602
   1.94117647 -99.97756407
   1.83823529 -99.98762471
   1.73529412 -100.00052504
   1.63235294 -100.01655613
   1.52941176 -100.03576896
   1.42647059 -100.05794438
   1.32352941 -100.08248865
   1.22058824 -100.10823652
   1.11764706 -100.13306328
   1.01470588 -100.15307444
   0.91176471 -100.16092623
   0.80882353 -100.14242613
   0.70588235 -100.06982922
   0.60294118 -99.88724371
   0.50000000 -99.46772645

                        *******************************
                        *       FIT OF THE SCF PES    *
                        *******************************
-------------------------------
POTENTIAL ENERGY SURFACE =   0
-------------------------------

Minimum found after 13 iterations
Equilibrium distance and its energy from the interpolated PES:
  Re      =   0.91829 Angstroem  (  1.73532 Bohr)
  E(Re)   =  -100.160969 Eh 
  dE/dR   = -4.070e-09 (-1.144e-02 CHEB)
  d2E/dR2 =    0.557854 (  -0.332446 CHEB) (   0.981387 NUM)
  d3E/dR3 =   -1.356579 (  79.311113 CHEB)

Spectroscopic constants:
  we =    3939.2 cm**-1 (based on SPLINE)
  we =      -nan cm**-1 (based on CHEB)
  we =    5224.7 cm**-1 (based on NUM)

Performing Morse fit ...
Morse-Fit Results:
 Te(adiabatic)   =   -1471.2 cm**-1         = -0.182 eV
 d2E/dR**2 (Morse)=      0.769587300 
 d3E/dR**3 (Morse)=     -3.034662043 
 d4E/dR**4 (Morse)=      9.307184079 
 E0               =   -100.167672357 Eh  RMS=9.33e-06
 Re               =   0.90987 Angstroem      =  1.71940 Bohr RMS=3.51e-05)
 De(Morse)        =   6.06061 eV             =  48882.1 cm**-1 RMS=8.61e-06
 D0(Morse)        =   5.77379 eV
 beta             =   1.31441 au          RMS=5.85e-05
 we               =   4626.7 cm**-1
 wexe             =    109.4 cm**-1
 Displacement   =   -0.0084 Angstroem      = -0.01592 Bohr


Timings for individual modules:

Sum of individual times         ...    15013.633 sec (= 250.227 min)
GTO integral calculation        ...       86.310 sec (=   1.439 min)   0.6 %
SCF iterations                  ...       19.639 sec (=   0.327 min)   0.1 %
CASSCF iterations               ...    14907.684 sec (= 248.461 min)  99.3 %
                             ****ORCA TERMINATED NORMALLY****
TOTAL RUN TIME: 0 days 4 hours 11 minutes 36 seconds 278 msec
