
                                 *****************
                                 * O   R   C   A *
                                 *****************

                                            #,                                       
                                            ###                                      
                                            ####                                     
                                            #####                                    
                                            ######                                   
                                           ########,                                 
                                     ,,################,,,,,                         
                               ,,#################################,,                 
                          ,,##########################################,,             
                       ,#########################################, ''#####,          
                    ,#############################################,,   '####,        
                  ,##################################################,,,,####,       
                ,###########''''           ''''###############################       
              ,#####''   ,,,,##########,,,,          '''####'''          '####       
            ,##' ,,,,###########################,,,                        '##       
           ' ,,###''''                  '''############,,,                           
         ,,##''                                '''############,,,,        ,,,,,,###''
      ,#''                                            '''#######################'''  
     '                                                          ''''####''''         
             ,#######,   #######,   ,#######,      ##                                
            ,#'     '#,  ##    ##  ,#'     '#,    #''#        ######   ,####,        
            ##       ##  ##   ,#'  ##            #'  '#       #        #'  '#        
            ##       ##  #######   ##           ,######,      #####,   #    #        
            '#,     ,#'  ##    ##  '#,     ,#' ,#      #,         ##   #,  ,#        
             '#######'   ##     ##  '#######'  #'      '#     #####' # '####'        



                  #######################################################
                  #                        -***-                        #
                  #          Department of theory and spectroscopy      #
                  #    Directorship and core code : Frank Neese         #
                  #        Max Planck Institute fuer Kohlenforschung    #
                  #                Kaiser Wilhelm Platz 1               #
                  #                 D-45470 Muelheim/Ruhr               #
                  #                      Germany                        #
                  #                                                     #
                  #                  All rights reserved                #
                  #                        -***-                        #
                  #######################################################


                         Program Version 5.0.2 -  RELEASE  -


 With contributions from (in alphabetic order):
   Daniel Aravena         : Magnetic Suceptibility
   Michael Atanasov       : Ab Initio Ligand Field Theory (pilot matlab implementation)
   Alexander A. Auer      : GIAO ZORA, VPT2 properties, NMR spectrum
   Ute Becker             : Parallelization
   Giovanni Bistoni       : ED, misc. LED, open-shell LED, HFLD
   Martin Brehm           : Molecular dynamics
   Dmytro Bykov           : SCF Hessian
   Vijay G. Chilkuri      : MRCI spin determinant printing, contributions to CSF-ICE
   Dipayan Datta          : RHF DLPNO-CCSD density
   Achintya Kumar Dutta   : EOM-CC, STEOM-CC
   Dmitry Ganyushin       : Spin-Orbit,Spin-Spin,Magnetic field MRCI
   Miquel Garcia          : C-PCM and meta-GGA Hessian, CC/C-PCM, Gaussian charge scheme
   Yang Guo               : DLPNO-NEVPT2, F12-NEVPT2, CIM, IAO-localization
   Andreas Hansen         : Spin unrestricted coupled pair/coupled cluster methods
   Benjamin Helmich-Paris : MC-RPA, TRAH-SCF, COSX integrals
   Lee Huntington         : MR-EOM, pCC
   Robert Izsak           : Overlap fitted RIJCOSX, COSX-SCS-MP3, EOM
   Marcus Kettner         : VPT2
   Christian Kollmar      : KDIIS, OOCD, Brueckner-CCSD(T), CCSD density, CASPT2, CASPT2-K
   Simone Kossmann        : Meta GGA functionals, TD-DFT gradient, OOMP2, MP2 Hessian
   Martin Krupicka        : Initial AUTO-CI
   Lucas Lang             : DCDCAS
   Marvin Lechner         : AUTO-CI (C++ implementation), FIC-MRCC
   Dagmar Lenk            : GEPOL surface, SMD
   Dimitrios Liakos       : Extrapolation schemes; Compound Job, initial MDCI parallelization
   Dimitrios Manganas     : Further ROCIS development; embedding schemes
   Dimitrios Pantazis     : SARC Basis sets
   Anastasios Papadopoulos: AUTO-CI, single reference methods and gradients
   Taras Petrenko         : DFT Hessian,TD-DFT gradient, ASA, ECA, R-Raman, ABS, FL, XAS/XES, NRVS
   Peter Pinski           : DLPNO-MP2, DLPNO-MP2 Gradient
   Christoph Reimann      : Effective Core Potentials
   Marius Retegan         : Local ZFS, SOC
   Christoph Riplinger    : Optimizer, TS searches, QM/MM, DLPNO-CCSD(T), (RO)-DLPNO pert. Triples
   Tobias Risthaus        : Range-separated hybrids, TD-DFT gradient, RPA, STAB
   Michael Roemelt        : Original ROCIS implementation
   Masaaki Saitow         : Open-shell DLPNO-CCSD energy and density
   Barbara Sandhoefer     : DKH picture change effects
   Avijit Sen             : IP-ROCIS
   Kantharuban Sivalingam : CASSCF convergence, NEVPT2, FIC-MRCI
   Bernardo de Souza      : ESD, SOC TD-DFT
   Georgi Stoychev        : AutoAux, RI-MP2 NMR, DLPNO-MP2 response
   Willem Van den Heuvel  : Paramagnetic NMR
   Boris Wezisla          : Elementary symmetry handling
   Frank Wennmohs         : Technical directorship


 We gratefully acknowledge several colleagues who have allowed us to
 interface, adapt or use parts of their codes:
   Stefan Grimme, W. Hujo, H. Kruse, P. Pracht,  : VdW corrections, initial TS optimization,
                  C. Bannwarth, S. Ehlert          DFT functionals, gCP, sTDA/sTD-DF
   Ed Valeev, F. Pavosevic, A. Kumar             : LibInt (2-el integral package), F12 methods
   Garnet Chan, S. Sharma, J. Yang, R. Olivares  : DMRG
   Ulf Ekstrom                                   : XCFun DFT Library
   Mihaly Kallay                                 : mrcc  (arbitrary order and MRCC methods)
   Jiri Pittner, Ondrej Demel                    : Mk-CCSD
   Frank Weinhold                                : gennbo (NPA and NBO analysis)
   Christopher J. Cramer and Donald G. Truhlar   : smd solvation model
   Lars Goerigk                                  : TD-DFT with DH, B97 family of functionals
   V. Asgeirsson, H. Jonsson                     : NEB implementation
   FAccTs GmbH                                   : IRC, NEB, NEB-TS, DLPNO-Multilevel, CI-OPT
                                                   MM, QMMM, 2- and 3-layer-ONIOM, Crystal-QMMM,
                                                   LR-CPCM, SF, NACMEs, symmetry and pop. for TD-DFT,
                                                   nearIR, NL-DFT gradient (VV10), updates on ESD,
                                                   ML-optimized integration grids
   S Lehtola, MJT Oliveira, MAL Marques          : LibXC Library
   Liviu Ungur et al                             : ANISO software


 Your calculation uses the libint2 library for the computation of 2-el integrals
 For citations please refer to: http://libint.valeyev.net

 Your ORCA version has been built with support for libXC version: 5.1.0
 For citations please refer to: https://tddft.org/programs/libxc/

 This ORCA versions uses:
   CBLAS   interface :  Fast vector & matrix operations
   LAPACKE interface :  Fast linear algebra routines
   SCALAPACK package :  Parallel linear algebra routines
   Shared memory     :  Shared parallel matrices
   BLAS/LAPACK       :  OpenBLAS 0.3.15  USE64BITINT DYNAMIC_ARCH NO_AFFINITY Haswell SINGLE_THREADED
        Core in use  :  Haswell
   Copyright (c) 2011-2014, The OpenBLAS Project


================================================================================

----- Orbital basis set information -----
Your calculation utilizes the basis: def2-TZVP
   F. Weigend and R. Ahlrichs, Phys. Chem. Chem. Phys. 7, 3297 (2005).

================================================================================
                                        WARNINGS
                       Please study these warnings very carefully!
================================================================================


WARNING: The HFTyp is != UHF which is not allowed for BrokenSym
  ===> : Switching to HFTyp=UHF


WARNING: Post HF methods need fully converged wavefunctions
  ===> : Setting SCFConvForced true
         You can overwrite this default with %scf ConvForced false 


WARNING: MDCI localization with Augmented Hessian Foster-Boys
  ===> : Switching off randomization!

INFO   : the flag for use of the SHARK integral package has been found!

================================================================================
                                       INPUT FILE
================================================================================
NAME = CCSD_T.inp
|  1> ! RHF CCSD(T) def2-TZVP TightSCF
|  2> 
|  3> %scf BrokenSym 1,1 end
|  4> 
|  5> * xyz 0 2
|  6> F 0 0 0
|  7> **                         ****END OF INPUT****
================================================================================

                       ****************************
                       * Single Point Calculation *
                       ****************************

---------------------------------
CARTESIAN COORDINATES (ANGSTROEM)
---------------------------------
  F      0.000000    0.000000    0.000000

----------------------------
CARTESIAN COORDINATES (A.U.)
----------------------------
  NO LB      ZA    FRAG     MASS         X           Y           Z
   0 F     9.0000    0    18.998    0.000000    0.000000    0.000000

--------------------------------
INTERNAL COORDINATES (ANGSTROEM)
--------------------------------
 F      0   0   0     0.000000000000     0.00000000     0.00000000

---------------------------
INTERNAL COORDINATES (A.U.)
---------------------------
 F      0   0   0     0.000000000000     0.00000000     0.00000000

---------------------
BASIS SET INFORMATION
---------------------
There are 1 groups of distinct atoms

 Group   1 Type F   : 11s6p2d1f contracted to 5s3p2d1f pattern {62111/411/11/1}

Atom   0F    basis set group =>   1
------------------------------------------------------------------------------
                           ORCA GTO INTEGRAL CALCULATION
------------------------------------------------------------------------------
------------------------------------------------------------------------------
                   ___                                                        
                  /   \      - P O W E R E D   B Y -                         
                 /     \                                                     
                 |  |  |   _    _      __       _____    __    __             
                 |  |  |  | |  | |    /  \     |  _  \  |  |  /  |          
                  \  \/   | |  | |   /    \    | | | |  |  | /  /          
                 / \  \   | |__| |  /  /\  \   | |_| |  |  |/  /          
                |  |  |   |  __  | /  /__\  \  |    /   |      \           
                |  |  |   | |  | | |   __   |  |    \   |  |\   \          
                \     /   | |  | | |  |  |  |  | |\  \  |  | \   \       
                 \___/    |_|  |_| |__|  |__|  |_| \__\ |__|  \__/        
                                                                              
                      - O R C A' S   B I G   F R I E N D -                    
                                      &                                       
                       - I N T E G R A L  F E E D E R -                       
                                                                              
 v1 FN, 2020, v2 2021                                                         
------------------------------------------------------------------------------


Reading SHARK input file CCSD_T.SHARKINP.tmp ... ok
----------------------
SHARK INTEGRAL PACKAGE
----------------------

Number of atoms                             ...      1
Number of basis functions                   ...     31
Number of shells                            ...     11
Maximum angular momentum                    ...      3
Integral batch strategy                     ... SHARK/LIBINT Hybrid
RI-J (if used) integral strategy            ... SPLIT-RIJ (Revised 2003 algorithm where possible)
Printlevel                                  ...      1
Contraction scheme used                     ... SEGMENTED contraction
Coulomb Range Separation                    ... NOT USED
Exchange Range Separation                   ... NOT USED
Finite Nucleus Model                        ... NOT USED
Auxiliary Coulomb fitting basis             ... NOT available
Auxiliary J/K fitting basis                 ... NOT available
Auxiliary Correlation fitting basis         ... NOT available
Auxiliary 'external' fitting basis          ... NOT available
Integral threshold                          ...     2.500000e-11
Primitive cut-off                           ...     2.500000e-12
Primitive pair pre-selection threshold      ...     2.500000e-12

Calculating pre-screening integrals         ... done (  0.0 sec) Dimension = 11
Organizing shell pair data                  ... done (  0.1 sec)
Shell pair information
Total number of shell pairs                 ...        66
Shell pairs after pre-screening             ...        66
Total number of primitive shell pairs       ...       232
Primitive shell pairs kept                  ...       232
          la=0 lb=0:     15 shell pairs
          la=1 lb=0:     15 shell pairs
          la=1 lb=1:      6 shell pairs
          la=2 lb=0:     10 shell pairs
          la=2 lb=1:      6 shell pairs
          la=2 lb=2:      3 shell pairs
          la=3 lb=0:      5 shell pairs
          la=3 lb=1:      3 shell pairs
          la=3 lb=2:      2 shell pairs
          la=3 lb=3:      1 shell pairs

Calculating one electron integrals          ... done (  0.0 sec)
Calculating Nuclear repulsion               ... done (  0.0 sec) ENN=      0.000000000000 Eh

SHARK setup successfully completed in   0.6 seconds

Maximum memory used throughout the entire GTOINT-calculation: 12.4 MB
-------------------------------------------------------------------------------
                                 ORCA SCF
-------------------------------------------------------------------------------

------------
SCF SETTINGS
------------
Hamiltonian:
 Ab initio Hamiltonian  Method          .... Hartree-Fock(GTOs)


General Settings:
 Integral files         IntName         .... CCSD_T
 Hartree-Fock type      HFTyp           .... UHF
 Total Charge           Charge          ....    0
 Multiplicity           Mult            ....    2
 Number of Electrons    NEL             ....    9
 Basis Dimension        Dim             ....   31
 Nuclear Repulsion      ENuc            ....      0.0000000000 Eh

Convergence Acceleration:
 DIIS                   CNVDIIS         .... on
   Start iteration      DIISMaxIt       ....    12
   Startup error        DIISStart       ....  0.200000
   # of expansion vecs  DIISMaxEq       ....     5
   Bias factor          DIISBfac        ....   1.050
   Max. coefficient     DIISMaxC        ....  10.000
 Trust-Rad. Augm. Hess. CNVTRAH         .... auto
   Auto Start mean grad. ratio tolernc. ....  1.125000
   Auto Start start iteration           ....    20
   Auto Start num. interpolation iter.  ....    10
   Max. Number of Micro iterations      ....    16
   Max. Number of Macro iterations      .... Maxiter - #DIIS iter
   Number of Davidson start vectors     ....     2
   Converg. threshold I  (grad. norm)   ....   1.000e-05
   Converg. threshold II (energy diff.) ....   1.000e-08
   Grad. Scal. Fac. for Micro threshold ....   0.100
   Minimum threshold for Micro iter.    ....   0.010
   NR start threshold (gradient norm)   ....   0.001
   Initial trust radius                 ....   0.400
   Minimum AH scaling param. (alpha)    ....   1.000
   Maximum AH scaling param. (alpha)    .... 1000.000
   Orbital update algorithm             .... Taylor
   White noise on init. David. guess    .... on
   Maximum white noise                  ....   0.010
   Quad. conv. algorithm                .... NR
 SOSCF                  CNVSOSCF        .... off
 Level Shifting         CNVShift        .... on
   Level shift para.    LevelShift      ....    0.2500
   Turn off err/grad.   ShiftErr        ....    0.0010
 Zerner damping         CNVZerner       .... off
 Static damping         CNVDamp         .... on
   Fraction old density DampFac         ....    0.7000
   Max. Damping (<1)    DampMax         ....    0.9800
   Min. Damping (>=0)   DampMin         ....    0.0000
   Turn off err/grad.   DampErr         ....    0.1000
 Fernandez-Rico         CNVRico         .... off

SCF Procedure:
 Maximum # iterations   MaxIter         ....   125
 SCF integral mode      SCFMode         .... Direct
   Integral package                     .... SHARK and LIBINT hybrid scheme
 Reset frequency        DirectResetFreq ....    20
 Integral Threshold     Thresh          ....  2.500e-11 Eh
 Primitive CutOff       TCut            ....  2.500e-12 Eh

Convergence Tolerance:
 Convergence Check Mode ConvCheckMode   .... Total+1el-Energy
 Convergence forced     ConvForced      .... 1
 Energy Change          TolE            ....  1.000e-08 Eh
 1-El. energy change                    ....  1.000e-05 Eh
 DIIS Error             TolErr          ....  5.000e-07


The Broken Symmetry feature is operative
   Number of electrons in the 'A' domain  ... 1
   Number of electrons in the 'B' domain  ... 1
We will first do a calculation with S=  1.0
and then try to converge to the broken symmetry state with Ms=  0.0


Diagonalization of the overlap matrix:
Smallest eigenvalue                        ... 3.088e-02
Time for diagonalization                   ...    0.001 sec
Threshold for overlap eigenvalues          ... 1.000e-08
Number of eigenvalues below threshold      ... 0
Time for construction of square roots      ...    0.134 sec
Total time needed                          ...    0.151 sec

Time for model grid setup =    0.135 sec

------------------------------
INITIAL GUESS: MODEL POTENTIAL
------------------------------
Loading Hartree-Fock densities                     ... done
Calculating cut-offs                               ... done
Initializing the effective Hamiltonian             ... done
Setting up the integral package (SHARK)            ... done
Starting the Coulomb interaction                   ... done (   0.2 sec)
Reading the grid                                   ... done
Mapping shells                                     ... done
Starting the XC term evaluation                    ... done (   0.0 sec)
Transforming the Hamiltonian                       ... done (   0.0 sec)
Diagonalizing the Hamiltonian                      ... done (   0.0 sec)
Back transforming the eigenvectors                 ... done (   0.0 sec)
Now organizing SCF variables                       ... done
                      ------------------
                      INITIAL GUESS DONE (   0.4 sec)
                      ------------------
--------------
SCF ITERATIONS
--------------
ITER       Energy         Delta-E        Max-DP      RMS-DP      [F,P]     Damp
               ***  Starting incremental Fock matrix formation  ***
  0    -98.6788727318   0.000000000000 0.02131944  0.00194629  0.4396786 0.7000
  1    -98.7282883936  -0.049415661830 0.01596720  0.00155911  0.2913983 0.7000
                               ***Turning on DIIS***
  2    -98.7613216759  -0.033033282330 0.01209042  0.00112481  0.1836755 0.7000
  3    -98.5590772700   0.202244405972 0.01063966  0.00085800  0.1233275 0.7000
  4    -98.6019360186  -0.042858748667 0.02938147  0.00215170  0.0860490 0.0000
  5    -98.8345340057  -0.232597987079 0.00286374  0.00017471  0.0062895 0.0000
  6    -98.8356268683  -0.001092862548 0.00124688  0.00007626  0.0021333 0.0000
  7    -98.8365380122  -0.000911143906 0.00057121  0.00003079  0.0005977 0.0000
  8    -98.8365372148   0.000000797313 0.00008277  0.00000389  0.0000921 0.0000
  9    -98.8364778740   0.000059340868 0.00002001  0.00000092  0.0000076 0.0000
                            ***DIIS convergence achieved***

               *****************************************************
               *                     SUCCESS                       *
               *           SCF CONVERGED AFTER  10 CYCLES          *
               *****************************************************


----------------
TOTAL SCF ENERGY
----------------

Total Energy       :          -98.83647243 Eh           -2689.47715 eV

Components:
Nuclear Repulsion  :            0.00000000 Eh               0.00000 eV
Electronic Energy  :          -98.83647243 Eh           -2689.47715 eV
One Electron Energy:         -133.19965040 Eh           -3624.54676 eV
Two Electron Energy:           34.36317797 Eh             935.06961 eV

Virial components:
Potential Energy   :         -197.69311754 Eh           -5379.50322 eV
Kinetic Energy     :           98.85664511 Eh            2690.02607 eV
Virial Ratio       :            1.99979594


---------------
SCF CONVERGENCE
---------------

  Last Energy change         ...    5.4439e-06  Tolerance :   1.0000e-08
  Last MAX-Density change    ...    6.8622e-06  Tolerance :   1.0000e-07
  Last RMS-Density change    ...    3.0477e-07  Tolerance :   5.0000e-09
  Last DIIS Error            ...    9.7378e-07  Tolerance :   5.0000e-07

             **** THE GBW FILE WAS UPDATED (CCSD_T.gbw) ****
             **** DENSITY CCSD_T.scfp WAS UPDATED ****
             **** ENERGY FILE WAS UPDATED (CCSD_T.en.tmp) ****
----------------------
UHF SPIN CONTAMINATION
----------------------

Expectation value of <S**2>     :     2.005094
Ideal value S*(S+1) for S=1.0   :     2.000000
Deviation                       :     0.005094

             **** THE GBW FILE WAS UPDATED (CCSD_T.gbw) ****
             **** DENSITY CCSD_T.scfp WAS UPDATED ****
----------------
ORBITAL ENERGIES
----------------
                 SPIN UP ORBITALS
  NO   OCC          E(Eh)            E(eV) 
   0   1.0000     -27.193247      -739.9659 
   1   1.0000      -2.400168       -65.3119 
   2   1.0000      -1.536950       -41.8225 
   3   1.0000      -1.536950       -41.8225 
   4   1.0000      -1.415651       -38.5218 
   5   0.0000       0.181837         4.9480 
   6   0.0000       0.225181         6.1275 
   7   0.0000       0.225181         6.1275 
   8   0.0000       0.257255         7.0003 
   9   0.0000       1.553903        42.2838 
  10   0.0000       1.553903        42.2838 
  11   0.0000       1.610208        43.8160 
  12   0.0000       1.610208        43.8160 
  13   0.0000       1.629928        44.3526 
  14   0.0000       2.822901        76.8150 
  15   0.0000       2.822901        76.8150 
  16   0.0000       2.905712        79.0684 
  17   0.0000       3.141979        85.4976 
  18   0.0000       6.563018       178.5888 
  19   0.0000       6.563018       178.5888 
  20   0.0000       6.621024       180.1672 
  21   0.0000       6.621024       180.1672 
  22   0.0000       6.656320       181.1277 
  23   0.0000       6.656320       181.1277 
  24   0.0000       6.668177       181.4503 
  25   0.0000       7.934696       215.9141 
  26   0.0000       7.934696       215.9141 
  27   0.0000       8.020718       218.2548 
  28   0.0000       8.020718       218.2548 
  29   0.0000       8.050688       219.0704 
  30   0.0000      57.105395      1553.9168 

                 SPIN DOWN ORBITALS
  NO   OCC          E(Eh)            E(eV) 
   0   1.0000     -27.085623      -737.0373 
   1   1.0000      -1.994378       -54.2698 
   2   1.0000      -1.310327       -35.6558 
   3   0.0000      -0.493559       -13.4304 
   4   0.0000      -0.493559       -13.4304 
   5   0.0000       0.225730         6.1424 
   6   0.0000       0.273651         7.4464 
   7   0.0000       0.339609         9.2412 
   8   0.0000       0.339609         9.2412 
   9   0.0000       1.699705        46.2513 
  10   0.0000       1.707985        46.4766 
  11   0.0000       1.707985        46.4766 
  12   0.0000       1.737159        47.2705 
  13   0.0000       1.737159        47.2705 
  14   0.0000       2.955555        80.4247 
  15   0.0000       3.043909        82.8290 
  16   0.0000       3.043909        82.8290 
  17   0.0000       3.256629        88.6174 
  18   0.0000       6.706372       182.4897 
  19   0.0000       6.706372       182.4897 
  20   0.0000       6.720358       182.8702 
  21   0.0000       6.720358       182.8702 
  22   0.0000       6.728623       183.0952 
  23   0.0000       6.728623       183.0952 
  24   0.0000       6.731357       183.1695 
  25   0.0000       8.162807       222.1213 
  26   0.0000       8.168913       222.2874 
  27   0.0000       8.168913       222.2874 
  28   0.0000       8.188647       222.8244 
  29   0.0000       8.188647       222.8244 
  30   0.0000      57.165780      1555.5599 

                    ********************************
                    * MULLIKEN POPULATION ANALYSIS *
                    ********************************

      **** WARNING: MULLIKEN FINDS    8.0000000 ELECTRONS INSTEAD OF 9 ****
--------------------------------------------
MULLIKEN ATOMIC CHARGES AND SPIN POPULATIONS
--------------------------------------------
   0 F :    1.000000    2.000000
Sum of atomic charges         :    1.0000000
Sum of atomic spin populations:    2.0000000

-----------------------------------------------------
MULLIKEN REDUCED ORBITAL CHARGES AND SPIN POPULATIONS
-----------------------------------------------------
CHARGE
  0 F s       :     3.998934  s :     3.998934
      pz      :     1.000483  p :     3.999825
      px      :     1.996472
      py      :     1.002869
      dz2     :     0.000266  d :     0.001066
      dxz     :     0.000002
      dyz     :     0.000000
      dx2y2   :     0.000789
      dxy     :     0.000009
      f0      :     0.000018  f :     0.000175
      f+1     :     0.000029
      f-1     :     0.000003
      f+2     :     0.000031
      f-2     :     0.000000
      f+3     :     0.000048
      f-3     :     0.000046

SPIN
  0 F s       :     0.000308  s :     0.000308
      pz      :     0.999418  p :     1.999827
      px      :     0.003377
      py      :     0.997032
      dz2     :    -0.000077  d :    -0.000308
      dxz     :    -0.000000
      dyz     :    -0.000000
      dx2y2   :    -0.000228
      dxy     :    -0.000003
      f0      :     0.000018  f :     0.000173
      f+1     :     0.000028
      f-1     :     0.000003
      f+2     :     0.000030
      f-2     :     0.000000
      f+3     :     0.000047
      f-3     :     0.000046


                     *******************************
                     * LOEWDIN POPULATION ANALYSIS *
                     *******************************

      **** WARNING: LOEWDIN FINDS    8.0000000 ELECTRONS INSTEAD OF 9 ****
-------------------------------------------
LOEWDIN ATOMIC CHARGES AND SPIN POPULATIONS
-------------------------------------------
   0 F :    1.000000    2.000000

----------------------------------------------------
LOEWDIN REDUCED ORBITAL CHARGES AND SPIN POPULATIONS
----------------------------------------------------
CHARGE
  0 F s       :     3.998934  s :     3.998934
      pz      :     1.000483  p :     3.999825
      px      :     1.996472
      py      :     1.002869
      dz2     :     0.000266  d :     0.001066
      dxz     :     0.000002
      dyz     :     0.000000
      dx2y2   :     0.000789
      dxy     :     0.000009
      f0      :     0.000018  f :     0.000175
      f+1     :     0.000029
      f-1     :     0.000003
      f+2     :     0.000031
      f-2     :     0.000000
      f+3     :     0.000048
      f-3     :     0.000046

SPIN
  0 F s       :     0.000308  s :     0.000308
      pz      :     0.999418  p :     1.999827
      px      :     0.003377
      py      :     0.997032
      dz2     :    -0.000077  d :    -0.000308
      dxz     :    -0.000000
      dyz     :    -0.000000
      dx2y2   :    -0.000228
      dxy     :    -0.000003
      f0      :     0.000018  f :     0.000173
      f+1     :     0.000028
      f-1     :     0.000003
      f+2     :     0.000030
      f-2     :     0.000000
      f+3     :     0.000047
      f-3     :     0.000046


                      *****************************
                      * MAYER POPULATION ANALYSIS *
                      *****************************

  NA   - Mulliken gross atomic population
  ZA   - Total nuclear charge
  QA   - Mulliken gross atomic charge
  VA   - Mayer's total valence
  BVA  - Mayer's bonded valence
  FA   - Mayer's free valence

  ATOM       NA         ZA         QA         VA         BVA        FA
  0 F      8.0000     9.0000     1.0000     2.0102     0.0000     2.0102

  Mayer bond orders larger than 0.100000



                ***UHF Natural Orbitals were saved in CCSD_T.unso***


                ***UHF Natural Orbitals were saved in CCSD_T.uno***

QR-MO GENERATION
 Dim     =   31
 Mult    =    3
 NEl     =    9
 N(DOMO) =    3
 N(SOMO) =    2
 N(VMO)  =   26


                ***Quasi-Restricted Orbitals were saved in CCSD_T.qro***

Orbital Energies of Quasi-Restricted MO's
   0( 2) :   -27.085553 a.u.  -737.035 eV
   1( 2) :    -1.990767 a.u.   -54.172 eV
   2( 2) :    -1.309688 a.u.   -35.638 eV
   3( 1) :    -0.983920 a.u.   -26.774 eV alpha=  -41.823 beta=  -11.725
   4( 1) :    -0.983920 a.u.   -26.774 eV alpha=  -41.823 beta=  -11.725
   5( 0) :     0.180724 a.u.     4.918 eV
   6( 0) :     0.225181 a.u.     6.127 eV
   7( 0) :     0.225181 a.u.     6.127 eV
   8( 0) :     0.256892 a.u.     6.990 eV
   9( 0) :     1.553903 a.u.    42.284 eV
  10( 0) :     1.553903 a.u.    42.284 eV
  11( 0) :     1.610208 a.u.    43.816 eV
  12( 0) :     1.610208 a.u.    43.816 eV
  13( 0) :     1.628068 a.u.    44.302 eV
  14( 0) :     2.822901 a.u.    76.815 eV
  15( 0) :     2.822901 a.u.    76.815 eV
  16( 0) :     2.905608 a.u.    79.066 eV
  17( 0) :     3.141560 a.u.    85.486 eV
  18( 0) :     6.563018 a.u.   178.589 eV
  19( 0) :     6.563018 a.u.   178.589 eV
  20( 0) :     6.621024 a.u.   180.167 eV
  21( 0) :     6.621024 a.u.   180.167 eV
  22( 0) :     6.656320 a.u.   181.128 eV
  23( 0) :     6.656320 a.u.   181.128 eV
  24( 0) :     6.667989 a.u.   181.445 eV
  25( 0) :     7.934696 a.u.   215.914 eV
  26( 0) :     7.934696 a.u.   215.914 eV
  27( 0) :     8.020718 a.u.   218.255 eV
  28( 0) :     8.020718 a.u.   218.255 eV
  29( 0) :     8.050123 a.u.   219.055 eV
  30( 0) :    57.105387 a.u.  1553.917 eV
------------------------------------------------------------------------------
                           ORCA ORBITAL LOCALIZATION
------------------------------------------------------------------------------

Input orbitals are from                  ... CCSD_T.uno
Output orbitals are to                   ... CCSD_T.unoloc
Max. number of iterations                ... 64
Localizations seeded randomly            ... on
Convergence tolerance                    ... 1.000e-05
Using relative localization threshhold   ... 1.000e-05
Treshold for strong local MOs            ... 0.000e+00
Treshold for bond MOs                    ... 1.000e-01
Operator                                 ... 0
Orbital range for localization           ... 3 to 4
Localization criterion                   ... PIPEK-MEZEY
Entering Jacobi type localization:
Using Cholesky decomposition as initial guess.
Initial value of the localization sum :     2.000000
ITERATION   0 : L=    2.0000000000 DL=  0.00e+00 (MAX-T)=   0.000 
ITERATION   1 : L=    2.0000000000 DL=  0.00e+00 (MAX-T)=   0.000 
ITERATION   2 : L=    2.0000000000 DL=  0.00e+00 (MAX-T)=   0.000 
LOCALIZATION SUM CONVERGED


--------------------------------------------------------------------------------
                    LOCALIZED MOLECULAR ORBITAL COMPOSITIONS
--------------------------------------------------------------------------------

The Mulliken populations for each LMO on each atom are computed
The LMO`s will be ordered according to atom index and type
  (A) Strongly localized MO`s have populations of >=0.000 on one atom
  (B) Two center bond orbitals have populations of >=0.100 on two atoms
  (C) Other MO`s are considered to be `delocalized`

FOUND  -   2 strongly local MO`s
       -   0 two center bond MO`s
       -   0 significantly delocalized MO`s

Rather strongly localized orbitals:
MO   4:   0F  -   1.000000
MO   3:   0F  -   1.000000
Localized MO's were stored in: CCSD_T.unoloc

----------------------------
 BROKEN SYMMETRY INFORMATION
----------------------------

first open orbital = 3
last open orbital  = 4
HOMO(alpha)        = 3
HOMO(beta)         = 3
The new occupation numbers
   0:    1.000    1.000
   1:    1.000    1.000
   2:    1.000    1.000
   3:    1.000    1.000
   4:    0.000    0.000
   5:    0.000    0.000
   6:    0.000    0.000
   7:    0.000    0.000
   8:    0.000    0.000
   9:    0.000    0.000
  10:    0.000    0.000
  11:    0.000    0.000
  12:    0.000    0.000
  13:    0.000    0.000
  14:    0.000    0.000
  15:    0.000    0.000
  16:    0.000    0.000
  17:    0.000    0.000
  18:    0.000    0.000
  19:    0.000    0.000
  20:    0.000    0.000
  21:    0.000    0.000
  22:    0.000    0.000
  23:    0.000    0.000
  24:    0.000    0.000
  25:    0.000    0.000
  26:    0.000    0.000
  27:    0.000    0.000
  28:    0.000    0.000
  29:    0.000    0.000
  30:    0.000    0.000

--------------
SCF ITERATIONS
--------------
ITER       Energy         Delta-E        Max-DP      RMS-DP      [F,P]     Damp
               ***  Starting incremental Fock matrix formation  ***
  0    -98.7766291908   0.000000000000 0.00312070  0.00020387  0.0451406 0.7000
  1    -98.7798588602  -0.003229669425 0.00264332  0.00016874  0.0347606 0.7000
                               ***Turning on DIIS***
  2    -98.7823901570  -0.002531296763 0.00690647  0.00043403  0.0265786 0.0000
  3    -98.7939971305  -0.011606973509 0.00208266  0.00012442  0.0057162 0.0000
  4    -98.7897168168   0.004280313645 0.00032143  0.00002064  0.0006716 0.0000
  5    -98.7894606019   0.000256214905 0.00005957  0.00000354  0.0002779 0.0000
  6    -98.7895669478  -0.000106345859 0.00001521  0.00000084  0.0000413 0.0000
  7    -98.7895631613   0.000003786472 0.00000159  0.00000012  0.0000042 0.0000
                            ***DIIS convergence achieved***

               *****************************************************
               *                     SUCCESS                       *
               *           SCF CONVERGED AFTER   8 CYCLES          *
               *****************************************************


----------------
TOTAL SCF ENERGY
----------------

Total Energy       :          -98.78956491 Eh           -2688.20073 eV

Components:
Nuclear Repulsion  :            0.00000000 Eh               0.00000 eV
Electronic Energy  :          -98.78956491 Eh           -2688.20073 eV
One Electron Energy:         -133.14863422 Eh           -3623.15854 eV
Two Electron Energy:           34.35906931 Eh             934.95781 eV

Virial components:
Potential Energy   :         -197.59249139 Eh           -5376.76504 eV
Kinetic Energy     :           98.80292647 Eh            2688.56431 eV
Virial Ratio       :            1.99986477


---------------
SCF CONVERGENCE
---------------

  Last Energy change         ...   -1.7520e-06  Tolerance :   1.0000e-08
  Last MAX-Density change    ...    1.8626e-07  Tolerance :   1.0000e-07
  Last RMS-Density change    ...    1.1431e-08  Tolerance :   5.0000e-09
  Last DIIS Error            ...    2.3079e-07  Tolerance :   5.0000e-07

             **** THE GBW FILE WAS UPDATED (CCSD_T.gbw) ****
             **** DENSITY CCSD_T.scfp WAS UPDATED ****
             **** ENERGY FILE WAS UPDATED (CCSD_T.en.tmp) ****
----------------------
UHF SPIN CONTAMINATION
----------------------

Expectation value of <S**2>     :     1.006298
Ideal value S*(S+1) for S=0.0   :     0.000000
Deviation                       :     1.006298

             **** THE GBW FILE WAS UPDATED (CCSD_T.gbw) ****
             **** DENSITY CCSD_T.scfp WAS UPDATED ****
----------------
ORBITAL ENERGIES
----------------
                 SPIN UP ORBITALS
  NO   OCC          E(Eh)            E(eV) 
   0   1.0000     -27.151250      -738.8231 
   1   1.0000      -2.205282       -60.0088 
   2   1.0000      -1.490674       -40.5633 
   3   1.0000      -1.368041       -37.2263 
   4   0.0000      -0.535913       -14.5829 
   5   0.0000       0.201827         5.4920 
   6   0.0000       0.231417         6.2972 
   7   0.0000       0.263819         7.1789 
   8   0.0000       0.324853         8.8397 
   9   0.0000       1.604895        43.6714 
  10   0.0000       1.614546        43.9340 
  11   0.0000       1.644892        44.7598 
  12   0.0000       1.699445        46.2442 
  13   0.0000       1.704048        46.3695 
  14   0.0000       2.841748        77.3279 
  15   0.0000       2.925607        79.6098 
  16   0.0000       3.015704        82.0615 
  17   0.0000       3.194311        86.9216 
  18   0.0000       6.624429       180.2599 
  19   0.0000       6.628488       180.3703 
  20   0.0000       6.645133       180.8233 
  21   0.0000       6.667414       181.4295 
  22   0.0000       6.670080       181.5021 
  23   0.0000       6.718639       182.8235 
  24   0.0000       6.718708       182.8253 
  25   0.0000       8.013823       218.0672 
  26   0.0000       8.035380       218.6538 
  27   0.0000       8.056132       219.2185 
  28   0.0000       8.143048       221.5836 
  29   0.0000       8.144612       221.6262 
  30   0.0000      57.124386      1554.4336 

                 SPIN DOWN ORBITALS
  NO   OCC          E(Eh)            E(eV) 
   0   1.0000     -27.151250      -738.8231 
   1   1.0000      -2.205282       -60.0088 
   2   1.0000      -1.490674       -40.5633 
   3   1.0000      -1.368041       -37.2263 
   4   0.0000      -0.535913       -14.5829 
   5   0.0000       0.201827         5.4920 
   6   0.0000       0.231417         6.2972 
   7   0.0000       0.263819         7.1789 
   8   0.0000       0.324853         8.8397 
   9   0.0000       1.604895        43.6714 
  10   0.0000       1.614546        43.9340 
  11   0.0000       1.644892        44.7598 
  12   0.0000       1.699445        46.2442 
  13   0.0000       1.704048        46.3695 
  14   0.0000       2.841748        77.3279 
  15   0.0000       2.925607        79.6098 
  16   0.0000       3.015704        82.0615 
  17   0.0000       3.194311        86.9216 
  18   0.0000       6.624429       180.2599 
  19   0.0000       6.628488       180.3703 
  20   0.0000       6.645133       180.8233 
  21   0.0000       6.667414       181.4295 
  22   0.0000       6.670080       181.5021 
  23   0.0000       6.718639       182.8235 
  24   0.0000       6.718708       182.8253 
  25   0.0000       8.013823       218.0672 
  26   0.0000       8.035380       218.6538 
  27   0.0000       8.056132       219.2185 
  28   0.0000       8.143048       221.5836 
  29   0.0000       8.144612       221.6262 
  30   0.0000      57.124386      1554.4336 

                    ********************************
                    * MULLIKEN POPULATION ANALYSIS *
                    ********************************

      **** WARNING: MULLIKEN FINDS    8.0000000 ELECTRONS INSTEAD OF 9 ****
--------------------------------------------
MULLIKEN ATOMIC CHARGES AND SPIN POPULATIONS
--------------------------------------------
   0 F :    1.000000    0.000000
Sum of atomic charges         :    1.0000000
Sum of atomic spin populations:    0.0000000

-----------------------------------------------------
MULLIKEN REDUCED ORBITAL CHARGES AND SPIN POPULATIONS
-----------------------------------------------------
CHARGE
  0 F s       :     3.996919  s :     3.996919
      pz      :     1.000448  p :     3.999721
      px      :     1.996440
      py      :     1.002833
      dz2     :     0.002305  d :     0.003081
      dxz     :     0.000002
      dyz     :     0.000000
      dx2y2   :     0.000765
      dxy     :     0.000009
      f0      :     0.000084  f :     0.000279
      f+1     :     0.000061
      f-1     :     0.000038
      f+2     :     0.000001
      f-2     :     0.000000
      f+3     :     0.000049
      f-3     :     0.000047

SPIN
  0 F s       :     0.000000  s :     0.000000
      pz      :     0.999382  p :    -0.000000
      px      :    -0.002388
      py      :    -0.996994
      dz2     :    -0.000115  d :    -0.000000
      dxz     :    -0.000000
      dyz     :    -0.000000
      dx2y2   :     0.000114
      dxy     :     0.000001
      f0      :     0.000084  f :    -0.000000
      f+1     :     0.000047
      f-1     :    -0.000038
      f+2     :     0.000000
      f-2     :     0.000000
      f+3     :    -0.000047
      f-3     :    -0.000047


                     *******************************
                     * LOEWDIN POPULATION ANALYSIS *
                     *******************************

      **** WARNING: LOEWDIN FINDS    8.0000000 ELECTRONS INSTEAD OF 9 ****
-------------------------------------------
LOEWDIN ATOMIC CHARGES AND SPIN POPULATIONS
-------------------------------------------
   0 F :    1.000000    0.000000

----------------------------------------------------
LOEWDIN REDUCED ORBITAL CHARGES AND SPIN POPULATIONS
----------------------------------------------------
CHARGE
  0 F s       :     3.996919  s :     3.996919
      pz      :     1.000448  p :     3.999721
      px      :     1.996440
      py      :     1.002833
      dz2     :     0.002305  d :     0.003081
      dxz     :     0.000002
      dyz     :     0.000000
      dx2y2   :     0.000765
      dxy     :     0.000009
      f0      :     0.000084  f :     0.000279
      f+1     :     0.000061
      f-1     :     0.000038
      f+2     :     0.000001
      f-2     :     0.000000
      f+3     :     0.000049
      f-3     :     0.000047

SPIN
  0 F s       :     0.000000  s :     0.000000
      pz      :     0.999382  p :    -0.000000
      px      :    -0.002388
      py      :    -0.996994
      dz2     :    -0.000115  d :    -0.000000
      dxz     :    -0.000000
      dyz     :    -0.000000
      dx2y2   :     0.000114
      dxy     :     0.000001
      f0      :     0.000084  f :     0.000000
      f+1     :     0.000047
      f-1     :    -0.000038
      f+2     :     0.000000
      f-2     :     0.000000
      f+3     :    -0.000047
      f-3     :    -0.000047


                      *****************************
                      * MAYER POPULATION ANALYSIS *
                      *****************************

  NA   - Mulliken gross atomic population
  ZA   - Total nuclear charge
  QA   - Mulliken gross atomic charge
  VA   - Mayer's total valence
  BVA  - Mayer's bonded valence
  FA   - Mayer's free valence

  ATOM       NA         ZA         QA         VA         BVA        FA
  0 F      8.0000     9.0000     1.0000     2.0126     0.0000     2.0126

  Mayer bond orders larger than 0.100000


-------
TIMINGS
-------

Total SCF time: 0 days 0 hours 0 min 4 sec 

Total time                  ....       4.884 sec
Sum of individual times     ....       5.555 sec  (113.7%)

Fock matrix formation       ....       4.334 sec  ( 88.7%)
Diagonalization             ....       0.019 sec  (  0.4%)
Density matrix formation    ....       0.001 sec  (  0.0%)
Population analysis         ....       0.317 sec  (  6.5%)
Initial guess               ....       0.298 sec  (  6.1%)
Orbital Transformation      ....       0.000 sec  (  0.0%)
Orbital Orthonormalization  ....       0.000 sec  (  0.0%)
DIIS solution               ....       0.452 sec  (  9.2%)
--------------------------
UHF CORRESPONDING ORBITALS
--------------------------
Transforming orbitals                         ... done
Choosing virtual orbitals in the orth. comp.  ... done

                ***UHF Corresponding Orbitals were saved in CCSD_T.uco***


Now the overlap between the corresponding orbitals will be plotted
Since there are an equal number of alpha and beta orbitals each orbital in the
alpha set is matched by an orbital in the beta set. If all overlaps are close to
one you have a normal UHF solution with some spin polarization
If you have a broken symmetry solution there will be overlaps that are
significantly smaller than one. These orbitals are the non-orthogonal magnetic
orbitals of the broken symmetry UHF solution.

----------------------
 Orbital    Overlap(*)
----------------------
   0:      1.00000
   1:      0.99693
   2:      0.99992
   3:      0.00000
(*)  the overlap is weighted by the product of occupation numbers
     NOTE: the whole analysis is not valid for fractional occupations

------------------------------------------
BROKEN SYMMETRY MAGNETIC COUPLING ANALYSIS
------------------------------------------

S(High-Spin)      =   1.0    
<S**2>(High-Spin) =   2.0051    
<S**2>(BrokenSym) =   1.0063    
E(High-Spin)      =   -98.836472 Eh
E(BrokenSym)      =   -98.789565 Eh
E(High-Spin)-E(BrokenSym)= -1.2764 eV -10294.056 cm**-1 (FERROMAGNETIC coupling)

          ---------------------------------------------------------
          | Spin-Hamiltonian Analysis based on H(HDvV)= -2J*SA*SB |
    -------                                                       -----------
    | J(1) =   10294.06 cm**-1    (from -(E[HS]-E[BS])/Smax**2)             |
    | J(2) =    5147.03 cm**-1    (from -(E[HS]-E[BS])/(Smax*(Smax+1))      |
    | J(3) =   10306.47 cm**-1    (from -(E[HS]-E[BS])/(<S**2>HS-<S**2>BS)) |
    -------------------------------------------------------------------------

  J(1): (a) A.P. Ginsberg J. Am. Chem. Soc. 102 (1980), 111
        (b) L. Noodleman J. Chem. Phys. 74 (1981), 5737
        (c) L. Noodleman E.R. Davidson Chem. Phys. 109 (1986), 131
  J(2)  (d) A. Bencini D. Gatteschi J. Am. Chem. Soc. 108 (1980), 5763
  J(3)  (e) K. Yamaguchi Y. Takahara T. Fueno in: V.H. Smith (Ed.)
            Applied Quantum Chemistry. Reidel, Dordrecht (1986), pp 155
        (f) T.Soda et al. Chem. Phys. Lett., 319, (2000), 223

-------
TIMINGS
-------

Total SCF time: 0 days 0 hours 0 min 10 sec 

Total time                  ....      10.261 sec
Sum of individual times     ....       6.084 sec  ( 59.3%)

Fock matrix formation       ....       0.000 sec  (  0.0%)
Diagonalization             ....       0.000 sec  (  0.0%)
Density matrix formation    ....       0.000 sec  (  0.0%)
Population analysis         ....       6.084 sec  ( 59.3%)
Initial guess               ....       0.000 sec  (  0.0%)
Orbital Transformation      ....       0.000 sec  (  0.0%)
Orbital Orthonormalization  ....       0.000 sec  (  0.0%)
DIIS solution               ....       0.000 sec  (  0.0%)

Maximum memory used throughout the entire SCF-calculation: 226.4 MB


--------------------------------------------------------------------------------
                             ORCA-MATRIX DRIVEN CI
--------------------------------------------------------------------------------

--------------------------------
AUTOMATIC CHOICE OF INCORE LEVEL
--------------------------------

Memory available                           ...    256.00 MB
Memory needed for S+T                      ...      0.10 MB
Memory needed for J+K                      ...      0.20 MB
Memory needed for DIIS                     ...      1.40 MB
Memory needed for 3-ext                    ...      0.45 MB
Memory needed for 4-ext                    ...      2.10 MB
Memory needed for triples                  ...      0.75 MB
 -> Final InCoreLevel    ... 5
 -> check shows that triples correction can be computed


Wavefunction type
-----------------
Correlation treatment                      ...      CCSD     
Single excitations                         ... ON
Orbital optimization                       ... OFF
Calculation of Z vector                    ... OFF
Calculation of Brueckner orbitals          ... OFF
Perturbative triple excitations            ... ON
Calculation of F12 correction              ... OFF
Frozen core treatment                      ... chemical core (2 el)
Reference Wavefunction                     ... UHF
  Alpha-MOs occ    :     1 ...    3 (  3 MO's/  3 electrons)
  Beta-MOs occ     :     1 ...    3 (  3 MO's/  3 electrons)
  Alpha-MOs virt   :     4 ...   30 ( 27 MO's              )
  Beta-MOs virt    :     4 ...   30 ( 27 MO's              )
Number of AO's                             ...     31
Number of electrons                        ...      9
Number of correlated electrons             ...      6

Algorithmic settings
--------------------
Integral transformation                    ... AO direct full transformation
K(C) Formation                             ... FULL-MO TRAFO
Maximum number of iterations               ...        50
Convergence tolerance (max. residuum)      ... 1.000e-05
Level shift for amplitude update           ... 2.000e-01
Maximum number of DIIS vectors             ...         7
DIIS turned on at iteration                ...         0
Damping before turning on DIIS             ...     0.500
Damping after turning on DIIS              ...     0.000
Pair specific amplitude update             ... OFF
Natural orbital iterations                 ... OFF
Perturbative natural orbital generation    ... OFF
Printlevel                                 ... 2

Memory handling:
----------------
Maximum memory for working arrays          ...    256 MB
Data storage in matrix containers          ... UNCOMPRESSED
Data type for integral storage             ... DOUBLE
In-Core Storage of quantities:
   Amplitudes+Sigma Vector      ... YES
   J+K operators                ... YES
   DIIS vectors                 ... YES
   3-external integrals         ... YES
   4-external integrals         ... YES


Initializing the integral package          ... done
Warning: reference  - re-canonicalizations have been set to INT 1 VIRT 1

--------------------------
UNRESTRICTED FOCK OPERATOR
--------------------------

Restoring SHARK [2] ... ok
Recanonicalizing the internal orbitals
Recanonicalizing the virtual orbitals
Time needed for Fock operator              ...            0.349 sec
Reference energy                           ...    -98.789564766
Warning: for UHF the TrafoType has to be JK
Warning: for UHF the K(C)-option but must be AOX

-------------------------------
PARTIAL EXCHANGE TRANSFORMATION
-------------------------------

Transformation type                        ... two-operators
Generation of integrals (i,mue|j,nue)      ... ON
Generation of integrals (mue,kappa|nue,tau)... ON
Generation of integrals (i,mue|a,nue)      ... ON
Dimension of the basis                     ...   31
Number of internal alpha-MOs               ...    3 (   1-   3)
Number of internal beta-MOs                ...    3 (   1-   3)
Number of external alpha-MOs               ...   27 (   4-  30)
Number of external beta-MOs                ...   27 (   4-  30)
Pair cutoff                                ... 0.000e+00 Eh
Number of AO pairs in the trafo            ...  496
Total Number of distinct AO pairs          ...  496
Memory devoted for trafo                   ...  256.0 MB 
Max. Number of MO pairs treated together   ... 34916      
Number Format for Storage                  ... Double (8 Byte)
Integral package used                      ... LIBINT

Starting integral evaluation:
    ... done with AO integral generation
Closing buffer AOK[aa] ( 0.00 GB; CompressionRatio= 0.86)
Closing buffer AOK[bb] ( 0.00 GB; CompressionRatio= 0.86)
Closing buffer AOK[ab] ( 0.00 GB; CompressionRatio= 0.86)
Closing buffer AOK[ba] ( 0.00 GB; CompressionRatio= 0.86)
Collecting buffer AOK 
Closing buffer IAAO1[aa] ( 0.00 GB; CompressionRatio= 0.98)
Closing buffer IAAO1[bb] ( 0.00 GB; CompressionRatio= 0.98)
Closing buffer IAAO1[ab] ( 0.00 GB; CompressionRatio= 0.98)
Closing buffer IAAO1[ba] ( 0.00 GB; CompressionRatio= 0.98)
Closing buffer IAAO2[aa] ( 0.00 GB; CompressionRatio= 0.98)
Closing buffer IAAO2[bb] ( 0.00 GB; CompressionRatio= 0.98)
Closing buffer IAAO2[ab] ( 0.00 GB; CompressionRatio= 0.98)
Closing buffer IAAO2[ba] ( 0.00 GB; CompressionRatio= 0.98)
Collecting buffer IAAO 
Closing buffer PRQS    ( 0.00 GB; CompressionRatio= 1.00)
Collecting buffer PRQS 
Number of alpha/alpha MO pairs in trafo    ...    6
Number of beta /beta  MO pairs in trafo    ...    6
Number of alpha/ beta MO pairs in trafo    ...    9
------------------------
SORTING OF (i,mue|j,nue)
------------------------

SORTING OF ALPHA/ALPHA PAIRS
IBATCH = 1 of  1
Closing buffer KAO[aa] ( 0.00 GB; CompressionRatio= 1.00)
Collecting buffer KAO 
SORTING OF BETA /BETA  PAIRS
IBATCH = 1 of  1
Closing buffer KAO[bb] ( 0.00 GB; CompressionRatio= 1.00)
Collecting buffer KAO 
SORTING OF ALPHA/BETA  PAIRS
IBATCH = 1 of  1
Closing buffer KAO[ab] ( 0.00 GB; CompressionRatio= 0.998441558442)
Collecting buffer KAO[ab] 
------------------------
SORTING OF (i,mue|a,nue)
------------------------

Number of alpha/alpha (i,a) pairs in trafo  ...   81
Number of beta /beta  (i,a) pairs in trafo  ...   81
Number of alpha/ beta (i,a) pairs in trafo  ...   81
Number of beta /alpha (i,a) pairs in trafo  ...   81
Setting up the alpha/alpha list             ... done
Setting up the beta /beta  list             ... done
Setting up the alpha/beta  list             ... done
Setting up the beta /alpha list             ... done
    ... Now sorting (i,mue|a,nue)integrals
    ... Integrals (i,b|a,c) will be made on the fly
SORTING OF ALPHA/ALPHA PAIRS
IBATCH = 1 of  1
Closing buffer IPAQ[aa]  0.00 GB; CompressionRatio= 1.00)
SORTING OF BETA /BETA  PAIRS
IBATCH = 1 of  1
Closing buffer IPAQ[bb]( 0.00 GB; CompressionRatio= 1.00)
SORTING OF ALPHA/BETA  PAIRS (NMatSort_ab=81)
IBATCH = 1 of  1
Closing buffer IPAQ[ab]( 0.00 GB; CompressionRatio= 1.00)
SORTING OF BETA/ALPHA  PAIRS
IBATCH = 1 of  1
Closing buffer IPAQ[ba]( 0.00 GB; CompressionRatio= 1.00)
N(AO-Batches) Done                         ...      7986 
N(AO-Batches) Skipped                      ...         0 
N(IJ)-pairs Skipped                        ...         0 
TOTAL TIME for half transformation         ...   148.968 sec
AO-integral generation                     ...     0.061 sec
Half transformation                        ...   129.085 sec
K-integral sorting                         ...     1.493 sec

------------------------------
PARTIAL COULOMB TRANSFORMATION
------------------------------

Transformation type                        ... two-operators
Dimension of the basis                     ...   31
Number of internal alpha-MOs               ...    3 (1-3)
Number of internal beta-MOs                ...    3 (1-3)
Pair cutoff                                ... 0.000e+00 Eh
Number of AO pairs included in the trafo   ...  496
Total Number of distinct AO pairs          ...  496
Memory devoted for trafo                   ...  256.0 MB 
Max. Number of MO pairs treated together   ... 67650      
Max. Number of MOs treated per batch       ... 2182      
Number Format for Storage                  ... Double (8 Byte)
AO-integral source                         ... DIRECT
Integral package used                      ... LIBINT

Starting integral evaluation:
<ss|**>:          990 b        0 skpd     0.708 s (  0.715 ms/b)
<sp|**>:          990 b        0 skpd     1.396 s (  1.411 ms/b)
<sd|**>:          660 b        0 skpd     1.687 s (  2.556 ms/b)
<sf|**>:          330 b        0 skpd     1.360 s (  4.120 ms/b)
<pp|**>:          396 b        0 skpd     1.358 s (  3.430 ms/b)
<pd|**>:          396 b        0 skpd     3.050 s (  7.702 ms/b)
<pf|**>:          198 b        0 skpd     1.853 s (  9.360 ms/b)
<dd|**>:          198 b        0 skpd     1.986 s ( 10.030 ms/b)
<df|**>:          132 b        0 skpd     2.191 s ( 16.595 ms/b)
<ff|**>:           66 b        0 skpd     0.992 s ( 15.028 ms/b)
Closing buffer AOJ[aa] ( 0.00 GB; CompressionRatio= 0.80)
Closing buffer AOJ[bb] ( 0.00 GB; CompressionRatio= 0.80)
Collecting buffer AOJ 
    ... done with AO integral generation
Number of Alpha-MO pairs included          ...    6
Number of Beta-MO pairs included           ...    6
    ... Now sorting integrals
SORTING ALPHA/ALPHA PAIRS
IBATCH = 1 of  1
Closing buffer JAO[aa] ( 0.00 GB; CompressionRatio= 1.00)
SORTING BETA/BETA PAIRS
IBATCH = 1 of  1
Closing buffer JAO[bb] ( 0.00 GB; CompressionRatio= 1.00)
Collecting buffer JAO 
TOTAL TIME for half transformation         ...    17.235 sec
AO-integral generation                     ...     0.039 sec
Half transformation                        ...    16.542 sec
J-integral sorting                         ...     0.393 sec

-------------------------- SECOND HALF TRANSFORMATION --------------------------
Formation of (ij|kl),(ij|ka), (ij|ab)      ... ok (     0.051 sec)
Formation of (ik|jl),(ik|ja), (ia|jb)      ... ok (     0.112 sec)


-----------------------
SPIN UNRESTRICTED GUESS
-----------------------

Spin-components of the MP2 energy:
EMP2(aa)=     -0.014018128
EMP2(bb)=     -0.014018128
EMP2(ab)=     -0.111018482

Initial guess performed in     0.001 sec
E(0)                                       ...    -98.789564766
E(MP2)                                     ...     -0.139054738
Initial E(tot)                             ...    -98.928619504
<T|T>                                      ...      0.019361459
Number of pairs included                   ... 15

------------------------------------------------
                  UHF COUPLED CLUSTER ITERATIONS
------------------------------------------------

Number of amplitudes to be optimized       ...         8825

Iter       E(tot)           E(Corr)          Delta-E          Residual     Time      <S|S>**1/2
  0    -98.928619504     -0.139054738      0.000000000      0.039448362    0.07      0.000000017
                           *** Turning on DIIS ***
  1    -98.942674948     -0.153110182     -0.014055444      0.037547208    0.03      0.006887554
  2    -98.947251153     -0.157686386     -0.004576205      0.035481937    0.04      0.009741229
  3    -98.949348221     -0.159783454     -0.002097068      0.032485063    0.03      0.010544043
  4    -98.956267903     -0.166703137     -0.006919682      0.017642092    0.04      0.010325020
  5    -98.961620417     -0.172055651     -0.005352515      0.003201403    0.02      0.009927629
  6    -98.962336811     -0.172772045     -0.000716394      0.000744385    0.02      0.009904534
  7    -98.962616304     -0.173051537     -0.000279493      0.000099602    0.02      0.009916982
  8    -98.962568547     -0.173003781      0.000047757      0.000023927    0.02      0.009912337
  9    -98.962582151     -0.173017384     -0.000013604      0.000011546    0.02      0.009910905
 10    -98.962578142     -0.173013375      0.000004009      0.000001276    0.02      0.009910388
               --- The Coupled-Cluster iterations have converged ---

----------------------
COUPLED CLUSTER ENERGY
----------------------

E(0)                                       ...    -98.789564766
E(CORR)                                    ...     -0.173013375
E(TOT)                                     ...    -98.962578142
Singles norm <S|S>**1/2                    ...      0.009910388 ( 0.004955194, 0.004955194)  
T1 diagnostic                              ...      0.004045899                              

------------------
LARGEST AMPLITUDES
------------------
   2a->  4a   2b->  4b       0.361198
   2a->  8a   2b->  4b       0.084785
   2a->  4a   2b->  8b       0.084785
   3a-> 10a   1b->  4b       0.027005
   1a->  4a   3b-> 10b       0.027005
   2a->  9a   1b->  4b       0.025195
   1a->  4a   2b->  9b       0.025195
   2a-> 16a   2b->  4b       0.024204
   2a->  4a   2b-> 16b       0.024204
   3a->  7a   3b->  7b       0.023991
   3a-> 15a   3b-> 15b       0.022116
   1a->  4a   2b->  5b       0.020991
   2a->  5a   1b->  4b       0.020991
   2a->  4a   1b-> 11b       0.020859
   1a-> 11a   2b->  4b       0.020859
   2a->  4a   1a-> 11a       0.020172

----------------------
UHF TRIPLES CORRECTION (Algorithm 1)
----------------------

Multiplier for the singles contribution    ...      1.000000000

SPIN-CASE Alpha-Alpha-Alpha:
10% done
20% done
30% done
40% done
50% done
60% done
70% done
80% done
90% done


SPIN-CASE Beta-Beta-Beta:
10% done
20% done
30% done
40% done
50% done
60% done
70% done
80% done
90% done


SPIN-CASE Alpha-Alpha-Beta:
10% done
20% done
30% done
40% done
50% done
60% done
70% done
80% done
90% done


SPIN-CASE Beta-Beta-Alpha:
10% done
20% done
30% done
40% done
50% done
60% done
70% done
80% done
90% done


Triples Correction (T)                     ...     -0.014097985
    alpha-alpha-alpha ... -0.000023995 (  0.2%)
    alpha-alpha-beta  ... -0.007024998 ( 49.8%)
    alpha-beta -beta  ... -0.007024998 ( 49.8%)
    beta -beta -beta  ... -0.000023995 (  0.2%)
Scaling of triples based on CCSD energies (Peterson et al. Molecular Physics 113, 1551 (2015))
E(T*) = f*E(T) where f = E(F12-CCSD)/E(CCSD) 
f = CCSD (with F12)/ CCSD (without F12)    ...      1.000000000
Scaled triples correction (T)              ...     -0.014097985

Final correlation energy                   ...     -0.187111361
E(CCSD)                                    ...    -98.962578142
E(CCSD(T))                                 ...    -98.976676127



        !!!!!!!!!!!!!!!!!!!!!!!!!!!!!!!!!!!!!!!!!!!!!!!!!!!!!!!!!!!!!!!!!!!!!!!!!! 
        !  Warning: Densities are linearized densities                           !
        !!!!!!!!!!!!!!!!!!!!!!!!!!!!!!!!!!!!!!!!!!!!!!!!!!!!!!!!!!!!!!!!!!!!!!!!!! 

NORM  =      1.172491854 sqrt=     1.082816630
W(HF) =      0.852884390
------------------------------------------------------------------------------
                           ORCA POPULATION ANALYSIS
------------------------------------------------------------------------------
Input electron density              ... CCSD_T.mdcip
Input spin density                  ... CCSD_T.mdcir
BaseName (.gbw .S,...)              ... CCSD_T

                    ********************************
                    * MULLIKEN POPULATION ANALYSIS *
                    ********************************

      **** WARNING: MULLIKEN FINDS    8.0000000 ELECTRONS INSTEAD OF 9 ****
                     **** SKIPPING MULLIKEN ANALYSIS ****

                     *******************************
                     * LOEWDIN POPULATION ANALYSIS *
                     *******************************

      **** WARNING: LOEWDIN FINDS    8.0000000 ELECTRONS INSTEAD OF 9 ****
-----------------------------------------
LOEWDIN ATOMIC CHARGES AND SPIN DENSITIES
-----------------------------------------
   0 F :    1.000000    0.000000

--------------------------------------------------
LOEWDIN REDUCED ORBITAL CHARGES AND SPIN DENSITIES
--------------------------------------------------
CHARGE
  0 F s       :     3.987974  s :     3.987974
      pz      :     1.000400  p :     3.989673
      px      :     1.986512
      py      :     1.002761
      dz2     :     0.004196  d :     0.020417
      dxz     :     0.004097
      dyz     :     0.003705
      dx2y2   :     0.004319
      dxy     :     0.004100
      f0      :     0.000229  f :     0.001935
      f+1     :     0.000314
      f-1     :     0.000176
      f+2     :     0.000275
      f-2     :     0.000276
      f+3     :     0.000336
      f-3     :     0.000329

SPIN
  0 F s       :     0.000000  s :     0.000000
      pz      :     0.697109  p :    -0.000000
      px      :    -0.001666
      py      :    -0.695443
      dz2     :     0.001356  d :    -0.000000
      dxz     :     0.001572
      dyz     :     0.000004
      dx2y2   :    -0.001358
      dxy     :    -0.001574
      f0      :     0.000084  f :     0.000000
      f+1     :     0.000127
      f-1     :     0.000038
      f+2     :    -0.000000
      f-2     :    -0.000000
      f+3     :    -0.000127
      f-3     :    -0.000121


                      *****************************
                      * MAYER POPULATION ANALYSIS *
                      *****************************

  NA   - Mulliken gross atomic population
  ZA   - Total nuclear charge
  QA   - Mulliken gross atomic charge
  VA   - Mayer's total valence
  BVA  - Mayer's bonded valence
  FA   - Mayer's free valence

  ATOM       NA         ZA         QA         VA         BVA        FA
  0 F      8.0000     9.0000     1.0000     2.1644     0.0000     2.1644





--------------------------------------------------------------------------------
                                    TIMINGS
--------------------------------------------------------------------------------


Total execution time                   ...      169.051 sec

Fock Matrix Formation                  ...        0.349 sec (  0.2%)
Initial Guess                          ...        0.001 sec (  0.0%)
DIIS Solver                            ...        0.004 sec (  0.0%)
State Vector Update                    ...        0.000 sec (  0.0%)
Sigma-vector construction              ...        0.309 sec (  0.2%)
  <D|H|D>(2-ext Fock)                  ...        0.001 sec (  0.4% of sigma)
  <D|H|D>(2-ext)                       ...        0.015 sec (  4.7% of sigma)
  <D|H|D>(4-ext)                       ...        0.114 sec ( 36.7% of sigma)
  <D|H|S>(1-ext)                       ...        0.002 sec (  0.6% of sigma)
  Fock-dressing                        ...        0.138 sec ( 44.5% of sigma)
  (ik|jl)-dressing                     ...        0.001 sec (  0.3% of sigma)
  (ij|ab),(ia|jb)-dressing             ...        0.026 sec (  8.4% of sigma)
Total Time for computing (T)           ...        0.492 sec (  0.3% of ALL)
  I/O of integral and amplitudes       ...        0.006 sec (  1.3% of (T))
  External N**7 contributions          ...        0.013 sec (  2.7% of (T))
  Internal N**7 contributions          ...        0.003 sec (  0.5% of (T))
  N**6 triples energy contributions    ...        0.014 sec (  2.9% of (T))


Maximum memory used throughout the entire MDCI-calculation: 64.1 MB

-------------------------   --------------------
FINAL SINGLE POINT ENERGY       -98.976676127145
-------------------------   --------------------


                            ***************************************
                            *     ORCA property calculations      *
                            ***************************************

                                    ---------------------
                                    Active property flags
                                    ---------------------
   (+) Dipole Moment


------------------------------------------------------------------------------
                       ORCA ELECTRIC PROPERTIES CALCULATION
------------------------------------------------------------------------------

Dipole Moment Calculation                       ... on
Quadrupole Moment Calculation                   ... off
Polarizability Calculation                      ... off
GBWName                                         ... CCSD_T.gbw
Electron density                                ... CCSD_T.scfp
The origin for moment calculation is the CENTER OF MASS  = ( 0.000000,  0.000000  0.000000)

-------------
DIPOLE MOMENT
-------------
                                X             Y             Z
Electronic contribution:     -0.00000      -0.00000       0.00000
Nuclear contribution   :      0.00000       0.00000       0.00000
                        -----------------------------------------
Total Dipole Moment    :     -0.00000      -0.00000       0.00000
                        -----------------------------------------
Magnitude (a.u.)       :      0.00000
Magnitude (Debye)      :      0.00000



--------------------
Rotational spectrum 
--------------------
 
Rotational constants in cm-1:     0.000000     0.000000     0.000000 
Rotational constants in MHz :     0.000000     0.000000     0.000000 

 Dipole components along the rotational axes: 
x,y,z [a.u.] :    -0.000000    -0.000000     0.000000 
x,y,z [Debye]:    -0.000000    -0.000000     0.000000 

 

                           *** MDCI DENSITY ***

------------------------------------------------------------------------------
                       ORCA ELECTRIC PROPERTIES CALCULATION
------------------------------------------------------------------------------

Dipole Moment Calculation                       ... on
Quadrupole Moment Calculation                   ... off
Polarizability Calculation                      ... off
GBWName                                         ... CCSD_T.gbw
Electron density                                ... CCSD_T.mdcip
The origin for moment calculation is the CENTER OF MASS  = ( 0.000000,  0.000000  0.000000)

-------------
DIPOLE MOMENT
-------------
                                X             Y             Z
Electronic contribution:     -0.00000       0.00000      -0.00000
Nuclear contribution   :      0.00000       0.00000       0.00000
                        -----------------------------------------
Total Dipole Moment    :     -0.00000       0.00000      -0.00000
                        -----------------------------------------
Magnitude (a.u.)       :      0.00000
Magnitude (Debye)      :      0.00000



--------------------
Rotational spectrum 
--------------------
 
Rotational constants in cm-1:     0.000000     0.000000     0.000000 
Rotational constants in MHz :     0.000000     0.000000     0.000000 

 Dipole components along the rotational axes: 
x,y,z [a.u.] :    -0.000000     0.000000    -0.000000 
x,y,z [Debye]:    -0.000000     0.000000    -0.000000 

 

Timings for individual modules:

Sum of individual times         ...      181.187 sec (=   3.020 min)
GTO integral calculation        ...        0.646 sec (=   0.011 min)   0.4 %
SCF iterations                  ...       11.201 sec (=   0.187 min)   6.2 %
MDCI module                     ...      169.340 sec (=   2.822 min)  93.5 %
                             ****ORCA TERMINATED NORMALLY****
TOTAL RUN TIME: 0 days 0 hours 3 minutes 2 seconds 898 msec
