
                                 *****************
                                 * O   R   C   A *
                                 *****************

                                            #,                                       
                                            ###                                      
                                            ####                                     
                                            #####                                    
                                            ######                                   
                                           ########,                                 
                                     ,,################,,,,,                         
                               ,,#################################,,                 
                          ,,##########################################,,             
                       ,#########################################, ''#####,          
                    ,#############################################,,   '####,        
                  ,##################################################,,,,####,       
                ,###########''''           ''''###############################       
              ,#####''   ,,,,##########,,,,          '''####'''          '####       
            ,##' ,,,,###########################,,,                        '##       
           ' ,,###''''                  '''############,,,                           
         ,,##''                                '''############,,,,        ,,,,,,###''
      ,#''                                            '''#######################'''  
     '                                                          ''''####''''         
             ,#######,   #######,   ,#######,      ##                                
            ,#'     '#,  ##    ##  ,#'     '#,    #''#        ######   ,####,        
            ##       ##  ##   ,#'  ##            #'  '#       #        #'  '#        
            ##       ##  #######   ##           ,######,      #####,   #    #        
            '#,     ,#'  ##    ##  '#,     ,#' ,#      #,         ##   #,  ,#        
             '#######'   ##     ##  '#######'  #'      '#     #####' # '####'        



                  #######################################################
                  #                        -***-                        #
                  #          Department of theory and spectroscopy      #
                  #    Directorship and core code : Frank Neese         #
                  #        Max Planck Institute fuer Kohlenforschung    #
                  #                Kaiser Wilhelm Platz 1               #
                  #                 D-45470 Muelheim/Ruhr               #
                  #                      Germany                        #
                  #                                                     #
                  #                  All rights reserved                #
                  #                        -***-                        #
                  #######################################################


                         Program Version 5.0.2 -  RELEASE  -


 With contributions from (in alphabetic order):
   Daniel Aravena         : Magnetic Suceptibility
   Michael Atanasov       : Ab Initio Ligand Field Theory (pilot matlab implementation)
   Alexander A. Auer      : GIAO ZORA, VPT2 properties, NMR spectrum
   Ute Becker             : Parallelization
   Giovanni Bistoni       : ED, misc. LED, open-shell LED, HFLD
   Martin Brehm           : Molecular dynamics
   Dmytro Bykov           : SCF Hessian
   Vijay G. Chilkuri      : MRCI spin determinant printing, contributions to CSF-ICE
   Dipayan Datta          : RHF DLPNO-CCSD density
   Achintya Kumar Dutta   : EOM-CC, STEOM-CC
   Dmitry Ganyushin       : Spin-Orbit,Spin-Spin,Magnetic field MRCI
   Miquel Garcia          : C-PCM and meta-GGA Hessian, CC/C-PCM, Gaussian charge scheme
   Yang Guo               : DLPNO-NEVPT2, F12-NEVPT2, CIM, IAO-localization
   Andreas Hansen         : Spin unrestricted coupled pair/coupled cluster methods
   Benjamin Helmich-Paris : MC-RPA, TRAH-SCF, COSX integrals
   Lee Huntington         : MR-EOM, pCC
   Robert Izsak           : Overlap fitted RIJCOSX, COSX-SCS-MP3, EOM
   Marcus Kettner         : VPT2
   Christian Kollmar      : KDIIS, OOCD, Brueckner-CCSD(T), CCSD density, CASPT2, CASPT2-K
   Simone Kossmann        : Meta GGA functionals, TD-DFT gradient, OOMP2, MP2 Hessian
   Martin Krupicka        : Initial AUTO-CI
   Lucas Lang             : DCDCAS
   Marvin Lechner         : AUTO-CI (C++ implementation), FIC-MRCC
   Dagmar Lenk            : GEPOL surface, SMD
   Dimitrios Liakos       : Extrapolation schemes; Compound Job, initial MDCI parallelization
   Dimitrios Manganas     : Further ROCIS development; embedding schemes
   Dimitrios Pantazis     : SARC Basis sets
   Anastasios Papadopoulos: AUTO-CI, single reference methods and gradients
   Taras Petrenko         : DFT Hessian,TD-DFT gradient, ASA, ECA, R-Raman, ABS, FL, XAS/XES, NRVS
   Peter Pinski           : DLPNO-MP2, DLPNO-MP2 Gradient
   Christoph Reimann      : Effective Core Potentials
   Marius Retegan         : Local ZFS, SOC
   Christoph Riplinger    : Optimizer, TS searches, QM/MM, DLPNO-CCSD(T), (RO)-DLPNO pert. Triples
   Tobias Risthaus        : Range-separated hybrids, TD-DFT gradient, RPA, STAB
   Michael Roemelt        : Original ROCIS implementation
   Masaaki Saitow         : Open-shell DLPNO-CCSD energy and density
   Barbara Sandhoefer     : DKH picture change effects
   Avijit Sen             : IP-ROCIS
   Kantharuban Sivalingam : CASSCF convergence, NEVPT2, FIC-MRCI
   Bernardo de Souza      : ESD, SOC TD-DFT
   Georgi Stoychev        : AutoAux, RI-MP2 NMR, DLPNO-MP2 response
   Willem Van den Heuvel  : Paramagnetic NMR
   Boris Wezisla          : Elementary symmetry handling
   Frank Wennmohs         : Technical directorship


 We gratefully acknowledge several colleagues who have allowed us to
 interface, adapt or use parts of their codes:
   Stefan Grimme, W. Hujo, H. Kruse, P. Pracht,  : VdW corrections, initial TS optimization,
                  C. Bannwarth, S. Ehlert          DFT functionals, gCP, sTDA/sTD-DF
   Ed Valeev, F. Pavosevic, A. Kumar             : LibInt (2-el integral package), F12 methods
   Garnet Chan, S. Sharma, J. Yang, R. Olivares  : DMRG
   Ulf Ekstrom                                   : XCFun DFT Library
   Mihaly Kallay                                 : mrcc  (arbitrary order and MRCC methods)
   Jiri Pittner, Ondrej Demel                    : Mk-CCSD
   Frank Weinhold                                : gennbo (NPA and NBO analysis)
   Christopher J. Cramer and Donald G. Truhlar   : smd solvation model
   Lars Goerigk                                  : TD-DFT with DH, B97 family of functionals
   V. Asgeirsson, H. Jonsson                     : NEB implementation
   FAccTs GmbH                                   : IRC, NEB, NEB-TS, DLPNO-Multilevel, CI-OPT
                                                   MM, QMMM, 2- and 3-layer-ONIOM, Crystal-QMMM,
                                                   LR-CPCM, SF, NACMEs, symmetry and pop. for TD-DFT,
                                                   nearIR, NL-DFT gradient (VV10), updates on ESD,
                                                   ML-optimized integration grids
   S Lehtola, MJT Oliveira, MAL Marques          : LibXC Library
   Liviu Ungur et al                             : ANISO software


 Your calculation uses the libint2 library for the computation of 2-el integrals
 For citations please refer to: http://libint.valeyev.net

 Your ORCA version has been built with support for libXC version: 5.1.0
 For citations please refer to: https://tddft.org/programs/libxc/

 This ORCA versions uses:
   CBLAS   interface :  Fast vector & matrix operations
   LAPACKE interface :  Fast linear algebra routines
   SCALAPACK package :  Parallel linear algebra routines
   Shared memory     :  Shared parallel matrices
   BLAS/LAPACK       :  OpenBLAS 0.3.15  USE64BITINT DYNAMIC_ARCH NO_AFFINITY Haswell SINGLE_THREADED
        Core in use  :  Haswell
   Copyright (c) 2011-2014, The OpenBLAS Project




***************************************
The coordinates will be read from file: acetone.xyz
***************************************


Your calculation utilizes the geometrical counterpoise correction gCP
Please cite in your paper:
H.Kruse, S. Grimme J.Chem.Phys., 136, (2012), 154101 
   

Your calculation utilizes the atom-pairwise dispersion correction
with the Becke-Johnson damping scheme (D3BJ)
Cite in your paper:
S.Grimme, S.Ehrlich, L.Goerigk, J Comput Chem, (2011), 32, 1456–1465 
S.Grimme, J.Antony, S.Ehrlich and H.Krieg, J.Chem.Phys., 132, (2010), 154104 
   

Your calculation employs the composite approach PBEh-3c.
Please cite in your paper:
S. Grimme, J. G. Brandenburg, C. Bannwarth, A. Hansen J.Chem.Phys., 143, (2015), 054107 
   

================================================================================

----- Orbital basis set information -----
Your calculation utilizes the basis: def2-mSVP

----- AuxJ basis set information -----
Your calculation utilizes the auxiliary basis: def2/J
   F. Weigend, Phys. Chem. Chem. Phys. 8, 1057 (2006).

================================================================================
                                        WARNINGS
                       Please study these warnings very carefully!
================================================================================

WARNING: Old DensityContainer found on disk!
         Will remove this file - 
         If you want to keep old densities, please start your calculation with a different basename. 


WARNING: Geometry Optimization
  ===> : Switching off AutoStart
         For restart on a previous wavefunction, please use MOREAD

INFO   : the flag for use of the SHARK integral package has been found!

================================================================================
                                       INPUT FILE
================================================================================
NAME = Acetone.inp
|  1> ! PBEh-3c Opt
|  2> ! CPCM(Water)
|  3> 
|  4> *xyzfile 0 1 acetone.xyz
|  5> 
|  6> 
|  7>                          ****END OF INPUT****
================================================================================

                       *****************************
                       * Geometry Optimization Run *
                       *****************************

Geometry optimization settings:
Update method            Update   .... BFGS
Choice of coordinates    CoordSys .... Z-matrix Internals
Initial Hessian          InHess   .... Almoef's Model

Convergence Tolerances:
Energy Change            TolE     ....  5.0000e-06 Eh
Max. Gradient            TolMAXG  ....  3.0000e-04 Eh/bohr
RMS Gradient             TolRMSG  ....  1.0000e-04 Eh/bohr
Max. Displacement        TolMAXD  ....  4.0000e-03 bohr
RMS Displacement         TolRMSD  ....  2.0000e-03 bohr
Strict Convergence                ....  False
------------------------------------------------------------------------------
                        ORCA OPTIMIZATION COORDINATE SETUP
------------------------------------------------------------------------------

The optimization will be done in new redundant internal coordinates
Making redundant internal coordinates   ...  (new redundants) done
Evaluating the initial hessian          ...  (Almloef) done
Evaluating the coordinates              ...  done
Calculating the B-matrix                .... done
Calculating the G-matrix                .... done
Diagonalizing the G-matrix              .... done
The first mode is                       ....   12
The number of degrees of freedom        ....   24

    -----------------------------------------------------------------
                    Redundant Internal Coordinates


    -----------------------------------------------------------------
         Definition                    Initial Value    Approx d2E/dq
    -----------------------------------------------------------------
      1. B(C   1,C   0)                  1.5001         0.416926   
      2. B(C   2,C   1)                  1.5001         0.416936   
      3. B(O   3,C   1)                  1.2212         1.040483   
      4. B(H   4,C   0)                  1.1100         0.334588   
      5. B(H   5,C   0)                  1.1102         0.334401   
      6. B(H   6,C   0)                  1.1101         0.334411   
      7. B(H   7,C   2)                  1.1100         0.334584   
      8. B(H   8,C   2)                  1.1102         0.334399   
      9. B(H   9,C   2)                  1.1101         0.334409   
     10. A(H   5,C   0,H   6)          109.1181         0.284188   
     11. A(H   4,C   0,H   6)          108.5911         0.284213   
     12. A(C   1,C   0,H   4)          111.4547         0.326261   
     13. A(C   1,C   0,H   5)          109.5229         0.326231   
     14. A(C   1,C   0,H   6)          109.5230         0.326232   
     15. A(H   4,C   0,H   5)          108.5910         0.284211   
     16. A(C   2,C   1,O   3)          119.2270         0.440723   
     17. A(C   0,C   1,O   3)          119.2266         0.440721   
     18. A(C   0,C   1,C   2)          121.5464         0.377333   
     19. A(H   7,C   2,H   9)          108.5908         0.284212   
     20. A(C   1,C   2,H   9)          109.5231         0.326233   
     21. A(H   7,C   2,H   8)          108.5907         0.284211   
     22. A(C   1,C   2,H   8)          109.5230         0.326232   
     23. A(H   8,C   2,H   9)          109.1179         0.284187   
     24. A(C   1,C   2,H   7)          111.4552         0.326261   
     25. D(O   3,C   1,C   0,H   5)     59.8156         0.012859   
     26. D(O   3,C   1,C   0,H   4)    180.0000         0.012859   
     27. D(C   2,C   1,C   0,H   4)      0.0000         0.012859   
     28. D(O   3,C   1,C   0,H   6)    -59.8153         0.012859   
     29. D(C   2,C   1,C   0,H   6)    120.1847         0.012859   
     30. D(C   2,C   1,C   0,H   5)   -120.1844         0.012859   
     31. D(H   7,C   2,C   1,C   0)      0.0000         0.012860   
     32. D(H   9,C   2,C   1,O   3)    -59.8153         0.012860   
     33. D(H   9,C   2,C   1,C   0)    120.1847         0.012860   
     34. D(H   8,C   2,C   1,O   3)     59.8156         0.012860   
     35. D(H   8,C   2,C   1,C   0)   -120.1844         0.012860   
     36. D(H   7,C   2,C   1,O   3)    180.0000         0.012860   
    -----------------------------------------------------------------

Number of atoms                         .... 10
Number of degrees of freedom            .... 36

         *************************************************************
         *                GEOMETRY OPTIMIZATION CYCLE   1            *
         *************************************************************
---------------------------------
CARTESIAN COORDINATES (ANGSTROEM)
---------------------------------
  C     -7.119780    1.397160   -0.000000
  C     -5.855470    2.204540    0.000000
  C     -4.505940    1.549490    0.000000
  O     -5.926520    3.423640    0.000000
  H     -6.905940    0.307950   -0.000000
  H     -7.715600    1.640870   -0.904460
  H     -7.715600    1.640870    0.904450
  H     -4.591800    0.442810    0.000000
  H     -3.942460    1.860760    0.904460
  H     -3.942460    1.860760   -0.904450

----------------------------
CARTESIAN COORDINATES (A.U.)
----------------------------
  NO LB      ZA    FRAG     MASS         X           Y           Z
   0 C     6.0000    0    12.011  -13.454434    2.640250   -0.000000
   1 C     6.0000    0    12.011  -11.065235    4.165977    0.000000
   2 C     6.0000    0    12.011   -8.514993    2.928112    0.000000
   3 O     8.0000    0    15.999  -11.199500    6.469742    0.000000
   4 H     1.0000    0     1.008  -13.050335    0.581941   -0.000000
   5 H     1.0000    0     1.008  -14.580371    3.100795   -1.709182
   6 H     1.0000    0     1.008  -14.580371    3.100795    1.709163
   7 H     1.0000    0     1.008   -8.677244    0.836790    0.000000
   8 H     1.0000    0     1.008   -7.450170    3.516327    1.709182
   9 H     1.0000    0     1.008   -7.450170    3.516327   -1.709163

--------------------------------
INTERNAL COORDINATES (ANGSTROEM)
--------------------------------
 C      0   0   0     0.000000000000     0.00000000     0.00000000
 C      1   0   0     1.500114075829     0.00000000     0.00000000
 C      2   1   0     1.500107237300   121.54643929     0.00000000
 O      2   1   3     1.221168666688   119.22656699   180.00000000
 H      1   2   3     1.110002689051   111.45466245     0.00000000
 H      1   2   3     1.110154911758   109.52286187   239.81559592
 H      1   2   3     1.110146764622   109.52301096   120.18467940
 H      3   2   1     1.110005658544   111.45521391     0.00000000
 H      3   2   1     1.110156121859   109.52297419   239.81555702
 H      3   2   1     1.110147974731   109.52312328   120.18471831

---------------------------
INTERNAL COORDINATES (A.U.)
---------------------------
 C      0   0   0     0.000000000000     0.00000000     0.00000000
 C      1   0   0     2.834804772957     0.00000000     0.00000000
 C      2   1   0     2.834791850010   121.54643929     0.00000000
 O      2   1   3     2.307674343366   119.22656699   180.00000000
 H      1   2   3     2.097601090222   111.45466245     0.00000000
 H      1   2   3     2.097888749450   109.52286187   239.81559592
 H      1   2   3     2.097873353594   109.52301096   120.18467940
 H      3   2   1     2.097606701751   111.45521391     0.00000000
 H      3   2   1     2.097891036209   109.52297419   239.81555702
 H      3   2   1     2.097875640369   109.52312328   120.18471831

---------------------
BASIS SET INFORMATION
---------------------
There are 3 groups of distinct atoms

 Group   1 Type C   : 8s4p1d contracted to 4s2p1d pattern {5111/31/1}
 Group   2 Type O   : 8s4p1d contracted to 4s2p1d pattern {5111/31/1}
 Group   3 Type H   : 4s contracted to 2s pattern {31}

Atom   0C    basis set group =>   1
Atom   1C    basis set group =>   1
Atom   2C    basis set group =>   1
Atom   3O    basis set group =>   2
Atom   4H    basis set group =>   3
Atom   5H    basis set group =>   3
Atom   6H    basis set group =>   3
Atom   7H    basis set group =>   3
Atom   8H    basis set group =>   3
Atom   9H    basis set group =>   3
---------------------------------
AUXILIARY/J BASIS SET INFORMATION
---------------------------------
There are 3 groups of distinct atoms

 Group   1 Type C   : 12s5p4d2f1g contracted to 6s4p3d1f1g pattern {711111/2111/211/2/1}
 Group   2 Type O   : 12s5p4d2f1g contracted to 6s4p3d1f1g pattern {711111/2111/211/2/1}
 Group   3 Type H   : 5s2p1d contracted to 3s1p1d pattern {311/2/1}

Atom   0C    basis set group =>   1
Atom   1C    basis set group =>   1
Atom   2C    basis set group =>   1
Atom   3O    basis set group =>   2
Atom   4H    basis set group =>   3
Atom   5H    basis set group =>   3
Atom   6H    basis set group =>   3
Atom   7H    basis set group =>   3
Atom   8H    basis set group =>   3
Atom   9H    basis set group =>   3
------------------------------------------------------------------------------
                           ORCA GTO INTEGRAL CALCULATION
                           -- RI-GTO INTEGRALS CHOSEN --
------------------------------------------------------------------------------
------------------------------------------------------------------------------
                   ___                                                        
                  /   \      - P O W E R E D   B Y -                         
                 /     \                                                     
                 |  |  |   _    _      __       _____    __    __             
                 |  |  |  | |  | |    /  \     |  _  \  |  |  /  |          
                  \  \/   | |  | |   /    \    | | | |  |  | /  /          
                 / \  \   | |__| |  /  /\  \   | |_| |  |  |/  /          
                |  |  |   |  __  | /  /__\  \  |    /   |      \           
                |  |  |   | |  | | |   __   |  |    \   |  |\   \          
                \     /   | |  | | |  |  |  |  | |\  \  |  | \   \       
                 \___/    |_|  |_| |__|  |__|  |_| \__\ |__|  \__/        
                                                                              
                      - O R C A' S   B I G   F R I E N D -                    
                                      &                                       
                       - I N T E G R A L  F E E D E R -                       
                                                                              
 v1 FN, 2020, v2 2021                                                         
------------------------------------------------------------------------------


Reading SHARK input file Acetone.SHARKINP.tmp ... ok
----------------------
SHARK INTEGRAL PACKAGE
----------------------

Number of atoms                             ...     10
Number of basis functions                   ...     72
Number of shells                            ...     40
Maximum angular momentum                    ...      2
Integral batch strategy                     ... SHARK/LIBINT Hybrid
RI-J (if used) integral strategy            ... SPLIT-RIJ (Revised 2003 algorithm where possible)
Printlevel                                  ...      1
Contraction scheme used                     ... SEGMENTED contraction
Coulomb Range Separation                    ... NOT USED
Exchange Range Separation                   ... NOT USED
Finite Nucleus Model                        ... NOT USED
Auxiliary Coulomb fitting basis             ... AVAILABLE
   # of basis functions in Aux-J            ...    262
   # of shells in Aux-J                     ...     90
   Maximum angular momentum in Aux-J        ...      4
Auxiliary J/K fitting basis                 ... NOT available
Auxiliary Correlation fitting basis         ... NOT available
Auxiliary 'external' fitting basis          ... NOT available
Integral threshold                          ...     2.500000e-11
Primitive cut-off                           ...     2.500000e-12
Primitive pair pre-selection threshold      ...     2.500000e-12

Calculating pre-screening integrals         ... done (  0.0 sec) Dimension = 40
Organizing shell pair data                  ... done (  0.0 sec)
Shell pair information
Total number of shell pairs                 ...       820
Shell pairs after pre-screening             ...       805
Total number of primitive shell pairs       ...      2996
Primitive shell pairs kept                  ...      2307
          la=0 lb=0:    391 shell pairs
          la=1 lb=0:    224 shell pairs
          la=1 lb=1:     36 shell pairs
          la=2 lb=0:    112 shell pairs
          la=2 lb=1:     32 shell pairs
          la=2 lb=2:     10 shell pairs

Calculating one electron integrals          ... done (  0.0 sec)
Calculating RI/J V-Matrix + Cholesky decomp.... done (  0.0 sec)
Calculating Nuclear repulsion               ... done (  0.0 sec) ENN=    119.283077824566 Eh

SHARK setup successfully completed in   0.1 seconds

Maximum memory used throughout the entire GTOINT-calculation: 9.5 MB
-------------------------------------------------------------------------------
                                 ORCA SCF
-------------------------------------------------------------------------------

------------
SCF SETTINGS
------------
Hamiltonian:
 Density Functional     Method          .... DFT(GTOs)
 Exchange Functional    Exchange        .... PBE
   PBE kappa parameter   XKappa         ....  1.024500
   PBE mue parameter    XMuePBE         ....  0.123457
 Correlation Functional Correlation     .... PBE
   PBE beta parameter  CBetaPBE         ....  0.030000
 LDA part of GGA corr.  LDAOpt          .... PW91-LDA
 Gradients option       PostSCFGGA      .... off
 Hybrid DFT is turned on
   Fraction HF Exchange ScalHFX         ....  0.420000
   Scaling of DF-GGA-X  ScalDFX         ....  0.580000
   Scaling of DF-GGA-C  ScalDFC         ....  1.000000
   Scaling of DF-LDA-C  ScalLDAC        ....  1.000000
   Perturbative correction              ....  0.000000
   Density functional embedding theory  .... OFF
 RI-approximation to the Coulomb term is turned on
   Number of AuxJ basis functions       .... 262
   RIJ-ON(X) (HFX calculated with O(N)) .... on
   Number of AuxJ basis functions       .... 262
   RIJ-COSX (HFX calculated with COS-X)).... on


General Settings:
 Integral files         IntName         .... Acetone
 Hartree-Fock type      HFTyp           .... RHF
 Total Charge           Charge          ....    0
 Multiplicity           Mult            ....    1
 Number of Electrons    NEL             ....   32
 Basis Dimension        Dim             ....   72
 Nuclear Repulsion      ENuc            ....    119.2830778246 Eh

Convergence Acceleration:
 DIIS                   CNVDIIS         .... on
   Start iteration      DIISMaxIt       ....    12
   Startup error        DIISStart       ....  0.200000
   # of expansion vecs  DIISMaxEq       ....     5
   Bias factor          DIISBfac        ....   1.050
   Max. coefficient     DIISMaxC        ....  10.000
 Trust-Rad. Augm. Hess. CNVTRAH         .... auto
   Auto Start mean grad. ratio tolernc. ....  1.125000
   Auto Start start iteration           ....    20
   Auto Start num. interpolation iter.  ....    10
   Max. Number of Micro iterations      ....    16
   Max. Number of Macro iterations      .... Maxiter - #DIIS iter
   Number of Davidson start vectors     ....     2
   Converg. threshold I  (grad. norm)   ....   1.000e-05
   Converg. threshold II (energy diff.) ....   1.000e-08
   Grad. Scal. Fac. for Micro threshold ....   0.100
   Minimum threshold for Micro iter.    ....   0.010
   NR start threshold (gradient norm)   ....   0.001
   Initial trust radius                 ....   0.400
   Minimum AH scaling param. (alpha)    ....   1.000
   Maximum AH scaling param. (alpha)    .... 1000.000
   Orbital update algorithm             .... Taylor
   White noise on init. David. guess    .... on
   Maximum white noise                  ....   0.010
   Quad. conv. algorithm                .... NR
   COSX micro iterations for RIJONX calc.... off
 SOSCF                  CNVSOSCF        .... on
   Start iteration      SOSCFMaxIt      ....   150
   Startup grad/error   SOSCFStart      ....  0.003300
 Level Shifting         CNVShift        .... on
   Level shift para.    LevelShift      ....    0.2500
   Turn off err/grad.   ShiftErr        ....    0.0010
 Zerner damping         CNVZerner       .... off
 Static damping         CNVDamp         .... on
   Fraction old density DampFac         ....    0.7000
   Max. Damping (<1)    DampMax         ....    0.9800
   Min. Damping (>=0)   DampMin         ....    0.0000
   Turn off err/grad.   DampErr         ....    0.1000
 Fernandez-Rico         CNVRico         .... off

SCF Procedure:
 Maximum # iterations   MaxIter         ....   125
 SCF integral mode      SCFMode         .... Direct
   Integral package                     .... SHARK and LIBINT hybrid scheme
 Reset frequency        DirectResetFreq ....    20
 Integral Threshold     Thresh          ....  2.500e-11 Eh
 Primitive CutOff       TCut            ....  2.500e-12 Eh

Convergence Tolerance:
 Convergence Check Mode ConvCheckMode   .... Total+1el-Energy
 Convergence forced     ConvForced      .... 0
 Energy Change          TolE            ....  1.000e-08 Eh
 1-El. energy change                    ....  1.000e-05 Eh
 Orbital Gradient       TolG            ....  1.000e-05
 Orbital Rotation angle TolX            ....  1.000e-05
 DIIS Error             TolErr          ....  5.000e-07


Diagonalization of the overlap matrix:
Smallest eigenvalue                        ... 6.083e-03
Time for diagonalization                   ...    0.001 sec
Threshold for overlap eigenvalues          ... 1.000e-08
Number of eigenvalues below threshold      ... 0
Time for construction of square roots      ...    0.000 sec
Total time needed                          ...    0.001 sec

--------------------------------
INITIAL GUESS: MINIMAL BASIS EHT
--------------------------------
The minimal basis has 26 functions
EHT matrix was diagonalized
Basis set overlap was calculated now projecting the orbitals
Using GuessMode=FMatrix for the initial guess
C*T matrix was formed
Effective Fockian was calculated
Effective Fockian was diagonalized
Initial density was built
                      ------------------
                      INITIAL GUESS DONE
                      ------------------
-------------------
DFT GRID GENERATION
-------------------

General Integration Accuracy     IntAcc      ... 4.159
Radial Grid Type                 RadialGrid  ... OptM3 with GC (2021)
Angular Grid (max. ang.)         AngularGrid ... 3 (Lebedev-194)
Angular grid pruning method      GridPruning ... 4 (adaptive)
Weight generation scheme         WeightScheme... Becke
Basis function cutoff            BFCut       ... 1.0000e-11
Integration weight cutoff        WCut        ... 1.0000e-14
Angular grids for H and He will be reduced by one unit
Partially contracted basis set               ... off
Rotationally invariant grid construction     ... off

Total number of grid points                  ...    21813
Total number of batches                      ...      345
Average number of points per batch           ...       63
Average number of grid points per atom       ...     2181
Time for grid setup =    0.096 sec

--------------------
COSX GRID GENERATION
--------------------

GRIDX 1
-------
General Integration Accuracy     IntAcc      ... 3.816
Radial Grid Type                 RadialGrid  ... OptM3 with GC (2021)
Angular Grid (max. ang.)         AngularGrid ... 1 (Lebedev-50)
Angular grid pruning method      GridPruning ... 4 (adaptive)
Weight generation scheme         WeightScheme... Becke
Basis function cutoff            BFCut       ... 1.0000e-11
Integration weight cutoff        WCut        ... 1.0000e-14
Angular grids for H and He will be reduced by one unit
Partially contracted basis set               ... on
Rotationally invariant grid construction     ... off

Total number of grid points                  ...     5631
Total number of batches                      ...       93
Average number of points per batch           ...       60
Average number of grid points per atom       ...      563
UseSFitting                                  ... on

GRIDX 2
-------
General Integration Accuracy     IntAcc      ... 4.020
Radial Grid Type                 RadialGrid  ... OptM3 with GC (2021)
Angular Grid (max. ang.)         AngularGrid ... 2 (Lebedev-110)
Angular grid pruning method      GridPruning ... 4 (adaptive)
Weight generation scheme         WeightScheme... Becke
Basis function cutoff            BFCut       ... 1.0000e-11
Integration weight cutoff        WCut        ... 1.0000e-14
Angular grids for H and He will be reduced by one unit
Partially contracted basis set               ... on
Rotationally invariant grid construction     ... off

Total number of grid points                  ...    12040
Total number of batches                      ...      193
Average number of points per batch           ...       62
Average number of grid points per atom       ...     1204
UseSFitting                                  ... on

GRIDX 3
-------
General Integration Accuracy     IntAcc      ... 4.338
Radial Grid Type                 RadialGrid  ... OptM3 with GC (2021)
Angular Grid (max. ang.)         AngularGrid ... 3 (Lebedev-194)
Angular grid pruning method      GridPruning ... 4 (adaptive)
Weight generation scheme         WeightScheme... Becke
Basis function cutoff            BFCut       ... 1.0000e-11
Integration weight cutoff        WCut        ... 1.0000e-14
Angular grids for H and He will be reduced by one unit
Partially contracted basis set               ... on
Rotationally invariant grid construction     ... off

Total number of grid points                  ...    26469
Total number of batches                      ...      419
Average number of points per batch           ...       63
Average number of grid points per atom       ...     2647
UseSFitting                                  ... on

Time for X-Grid setup             =    0.241 sec


--------------------
CPCM SOLVATION MODEL
--------------------
CPCM parameters:
  Epsilon                                         ...      80.4000
  Refrac                                          ...       1.3300
  Rsolv                                           ...       1.3000
  Surface type                                    ... GAUSSIAN VDW
  Epsilon function type                           ...         CPCM
Radii:
 Radius for C  used is    3.8550 Bohr (=   2.0400 Ang.)
 Radius for O  used is    3.4469 Bohr (=   1.8240 Ang.)
 Radius for H  used is    2.4944 Bohr (=   1.3200 Ang.)
Calculating surface                               ...        done! (  0.0s)
GEPOL surface points                              ...          623
GEPOL Volume                                      ...     585.9771
GEPOL Surface-area                                ...     378.9887
Calculating surface distance matrix               ...        done! (  0.0s)
Performing Cholesky decomposition & store         ...        done! (  0.0s)
Overall time for CPCM initialization              ...                 0.0s
--------------
SCF ITERATIONS
--------------
ITER       Energy         Delta-E        Max-DP      RMS-DP      [F,P]     Damp
               ***  Starting incremental Fock matrix formation  ***
  0   -192.0907013837   0.000000000000 0.18917462  0.00910506  0.5387551 0.7000
  1   -192.3462960754  -0.255594691676 0.10829751  0.00507101  0.2785863 0.7000
                               ***Turning on DIIS***
  2   -192.4651134150  -0.118817339626 0.05434828  0.00259203  0.1970497 0.7000
  3   -192.5478004709  -0.082687055880 0.02912984  0.00168514  0.1387674 0.7000
  4   -192.6076171377  -0.059816666837 0.06549385  0.00414392  0.0970808 0.0000
  5   -192.7500126528  -0.142395515056 0.00876631  0.00042684  0.0116118 0.0000
  6   -192.7501416658  -0.000129013089 0.00397480  0.00013856  0.0081693 0.0000
                      *** Initiating the SOSCF procedure ***
                           *** Shutting down DIIS ***
                      *** Re-Reading the Fockian *** 
                      *** Removing any level shift *** 
ITER      Energy       Delta-E        Grad      Rot      Max-DP    RMS-DP
  7   -192.75019663  -0.0000549673  0.000995  0.000995  0.001527  0.000084
               *** Restarting incremental Fock matrix formation ***
  8   -192.75029032  -0.0000936845  0.000473  0.001176  0.001001  0.000052
  9   -192.75029198  -0.0000016652  0.000178  0.000323  0.000745  0.000040
 10   -192.75029215  -0.0000001660  0.000137  0.000081  0.000276  0.000014
 11   -192.75029229  -0.0000001416  0.000033  0.000069  0.000096  0.000005
 12   -192.75029230  -0.0000000073  0.000018  0.000030  0.000049  0.000003
                  ***Gradient check signals convergence***
              ***Rediagonalizing the Fockian in SOSCF/NRSCF***

               *****************************************************
               *                     SUCCESS                       *
               *           SCF CONVERGED AFTER  13 CYCLES          *
               *****************************************************

Old exchange energy                            =    -10.857851960 Eh
New exchange energy                            =    -10.857825963 Eh
Exchange energy change after final integration =      0.000025997 Eh
Total energy after final integration           =   -192.750266304 Eh
Final COS-X integration done in                =     1.035 sec

----------------
TOTAL SCF ENERGY
----------------

Total Energy       :         -192.75026630 Eh           -5245.00140 eV

Components:
Nuclear Repulsion  :          119.28307782 Eh            3245.85756 eV
Electronic Energy  :         -312.03334413 Eh           -8490.85896 eV
One Electron Energy:         -497.23719247 Eh          -13530.51189 eV
Two Electron Energy:          185.20384834 Eh            5039.65292 eV
Max COSX asymmetry :            0.00000637 Eh               0.00017 eV
CPCM Dielectric    :           -0.01029906 Eh              -0.28025 eV

Virial components:
Potential Energy   :         -383.93224106 Eh          -10447.32741 eV
Kinetic Energy     :          191.18197476 Eh            5202.32601 eV
Virial Ratio       :            2.00820313


DFT components:
N(Alpha)           :       15.999829697716 electrons
N(Beta)            :       15.999829697716 electrons
N(Total)           :       31.999659395432 electrons
E(X)               :      -14.427330485712 Eh       
E(C)               :       -1.375204148192 Eh       
E(XC)              :      -15.802534633903 Eh       
DFET-embed. en.    :        0.000000000000 Eh       
CPCM Solvation Model Properties:
Surface-charge          :           -0.01245240
Charge-correction       :           -0.00015073 Eh              -0.00410 eV
Free-energy (cav+disp)  :  This term is not implemented in the current solvation scheme

---------------
SCF CONVERGENCE
---------------

  Last Energy change         ...   -3.9508e-09  Tolerance :   1.0000e-08
  Last MAX-Density change    ...    1.1102e-15  Tolerance :   1.0000e-07
  Last RMS-Density change    ...    5.4243e-17  Tolerance :   5.0000e-09
  Last Orbital Gradient      ...    7.6320e-07  Tolerance :   1.0000e-05
  Last Orbital Rotation      ...    7.2541e-07  Tolerance :   1.0000e-05

             **** THE GBW FILE WAS UPDATED (Acetone.gbw) ****
             **** DENSITY Acetone.scfp WAS UPDATED ****
             **** ENERGY FILE WAS UPDATED (Acetone.en.tmp) ****
             **** THE GBW FILE WAS UPDATED (Acetone.gbw) ****
             **** DENSITY Acetone.scfp WAS UPDATED ****
----------------
ORBITAL ENERGIES
----------------

  NO   OCC          E(Eh)            E(eV) 
   0   2.0000     -19.482780      -530.1534 
   1   2.0000     -10.540313      -286.8165 
   2   2.0000     -10.437524      -284.0195 
   3   2.0000     -10.437449      -284.0174 
   4   2.0000      -1.149767       -31.2868 
   5   2.0000      -0.848852       -23.0984 
   6   2.0000      -0.789301       -21.4780 
   7   2.0000      -0.597644       -16.2627 
   8   2.0000      -0.517966       -14.0946 
   9   2.0000      -0.513569       -13.9749 
  10   2.0000      -0.512867       -13.9558 
  11   2.0000      -0.455030       -12.3820 
  12   2.0000      -0.445705       -12.1282 
  13   2.0000      -0.420503       -11.4425 
  14   2.0000      -0.391978       -10.6663 
  15   2.0000      -0.307993        -8.3809 
  16   0.0000       0.010198         0.2775 
  17   0.0000       0.150630         4.0989 
  18   0.0000       0.171635         4.6704 
  19   0.0000       0.200430         5.4540 
  20   0.0000       0.223801         6.0899 
  21   0.0000       0.233812         6.3624 
  22   0.0000       0.240453         6.5430 
  23   0.0000       0.241149         6.5620 
  24   0.0000       0.321466         8.7475 
  25   0.0000       0.343948         9.3593 
  26   0.0000       0.491362        13.3706 
  27   0.0000       0.522118        14.2076 
  28   0.0000       0.576623        15.6907 
  29   0.0000       0.595961        16.2169 
  30   0.0000       0.603699        16.4275 
  31   0.0000       0.614112        16.7108 
  32   0.0000       0.629773        17.1370 
  33   0.0000       0.723051        19.6752 
  34   0.0000       0.728591        19.8260 
  35   0.0000       0.868938        23.6450 
  36   0.0000       0.920197        25.0398 
  37   0.0000       0.990961        26.9654 
  38   0.0000       1.017838        27.6968 
  39   0.0000       1.030011        28.0280 
  40   0.0000       1.044513        28.4227 
  41   0.0000       1.049803        28.5666 
  42   0.0000       1.069085        29.0913 
  43   0.0000       1.123331        30.5674 
  44   0.0000       1.204065        32.7643 
  45   0.0000       1.217903        33.1408 
  46   0.0000       1.364901        37.1409 
  47   0.0000       1.409630        38.3580 
  48   0.0000       1.527987        41.5786 
  49   0.0000       1.768769        48.1306 
  50   0.0000       1.813985        49.3610 
  51   0.0000       1.855592        50.4932 
  52   0.0000       1.858151        50.5629 
  53   0.0000       1.865305        50.7575 
  54   0.0000       1.931219        52.5511 
  55   0.0000       2.045258        55.6543 
  56   0.0000       2.090685        56.8904 
  57   0.0000       2.211947        60.1901 
  58   0.0000       2.269570        61.7581 
  59   0.0000       2.274003        61.8788 
  60   0.0000       2.292864        62.3920 
  61   0.0000       2.355204        64.0883 
  62   0.0000       2.412025        65.6345 
  63   0.0000       2.484424        67.6046 
  64   0.0000       2.690670        73.2168 
  65   0.0000       2.800896        76.2162 
  66   0.0000       2.963597        80.6436 
  67   0.0000       3.064484        83.3888 
  68   0.0000      13.525079       368.0361 
  69   0.0000      13.851806       376.9268 
  70   0.0000      14.045941       382.2095 
  71   0.0000      25.653821       698.0759 

                    ********************************
                    * MULLIKEN POPULATION ANALYSIS *
                    ********************************

-----------------------
MULLIKEN ATOMIC CHARGES
-----------------------
   0 C :   -0.753975
   1 C :    0.377535
   2 C :   -0.754010
   3 O :   -0.417839
   4 H :    0.237687
   5 H :    0.268177
   6 H :    0.268179
   7 H :    0.237762
   8 H :    0.268241
   9 H :    0.268243
Sum of atomic charges:   -0.0000000

--------------------------------
MULLIKEN REDUCED ORBITAL CHARGES
--------------------------------
  0 C s       :     3.418741  s :     3.418741
      pz      :     1.171801  p :     3.302189
      px      :     1.020163
      py      :     1.110225
      dz2     :     0.007567  d :     0.033044
      dxz     :     0.008034
      dyz     :     0.002349
      dx2y2   :     0.008218
      dxy     :     0.006876
  1 C s       :     3.122559  s :     3.122559
      pz      :     0.683370  p :     2.401620
      px      :     0.886825
      py      :     0.831424
      dz2     :     0.005296  d :     0.098287
      dxz     :     0.005616
      dyz     :     0.017288
      dx2y2   :     0.028294
      dxy     :     0.041793
  2 C s       :     3.418668  s :     3.418668
      pz      :     1.171837  p :     3.302297
      px      :     0.999828
      py      :     1.130631
      dz2     :     0.007567  d :     0.033046
      dxz     :     0.007341
      dyz     :     0.003045
      dx2y2   :     0.009545
      dxy     :     0.005548
  3 O s       :     3.761306  s :     3.761306
      pz      :     1.368727  p :     4.628375
      px      :     1.848417
      py      :     1.411231
      dz2     :     0.002479  d :     0.028158
      dxz     :     0.000100
      dyz     :     0.011009
      dx2y2   :     0.008163
      dxy     :     0.006407
  4 H s       :     0.762313  s :     0.762313
  5 H s       :     0.731823  s :     0.731823
  6 H s       :     0.731821  s :     0.731821
  7 H s       :     0.762238  s :     0.762238
  8 H s       :     0.731759  s :     0.731759
  9 H s       :     0.731757  s :     0.731757


                     *******************************
                     * LOEWDIN POPULATION ANALYSIS *
                     *******************************

----------------------
LOEWDIN ATOMIC CHARGES
----------------------
   0 C :   -0.398987
   1 C :    0.109369
   2 C :   -0.399089
   3 O :   -0.262272
   4 H :    0.142571
   5 H :    0.166435
   6 H :    0.166434
   7 H :    0.142629
   8 H :    0.166456
   9 H :    0.166456

-------------------------------
LOEWDIN REDUCED ORBITAL CHARGES
-------------------------------
  0 C s       :     2.973668  s :     2.973668
      pz      :     1.145781  p :     3.363340
      px      :     1.100792
      py      :     1.116766
      dz2     :     0.013426  d :     0.061980
      dxz     :     0.014444
      dyz     :     0.003382
      dx2y2   :     0.016336
      dxy     :     0.014392
  1 C s       :     2.881399  s :     2.881399
      pz      :     0.690577  p :     2.786439
      px      :     1.063567
      py      :     1.032294
      dz2     :     0.011973  d :     0.222794
      dxz     :     0.010659
      dyz     :     0.033242
      dx2y2   :     0.062407
      dxy     :     0.104513
  2 C s       :     2.973663  s :     2.973663
      pz      :     1.145788  p :     3.363449
      px      :     1.093304
      py      :     1.124357
      dz2     :     0.013426  d :     0.061977
      dxz     :     0.013518
      dyz     :     0.004310
      dx2y2   :     0.018989
      dxy     :     0.011734
  3 O s       :     3.521629  s :     3.521629
      pz      :     1.362109  p :     4.685824
      px      :     1.826288
      py      :     1.497428
      dz2     :     0.006057  d :     0.054819
      dxz     :     0.000143
      dyz     :     0.013672
      dx2y2   :     0.018994
      dxy     :     0.015954
  4 H s       :     0.857429  s :     0.857429
  5 H s       :     0.833565  s :     0.833565
  6 H s       :     0.833566  s :     0.833566
  7 H s       :     0.857371  s :     0.857371
  8 H s       :     0.833544  s :     0.833544
  9 H s       :     0.833544  s :     0.833544


                      *****************************
                      * MAYER POPULATION ANALYSIS *
                      *****************************

  NA   - Mulliken gross atomic population
  ZA   - Total nuclear charge
  QA   - Mulliken gross atomic charge
  VA   - Mayer's total valence
  BVA  - Mayer's bonded valence
  FA   - Mayer's free valence

  ATOM       NA         ZA         QA         VA         BVA        FA
  0 C      6.7540     6.0000    -0.7540     3.6444     3.6444    -0.0000
  1 C      5.6225     6.0000     0.3775     3.9019     3.9019    -0.0000
  2 C      6.7540     6.0000    -0.7540     3.6445     3.6445    -0.0000
  3 O      8.4178     8.0000    -0.4178     2.1284     2.1284     0.0000
  4 H      0.7623     1.0000     0.2377     0.9093     0.9093     0.0000
  5 H      0.7318     1.0000     0.2682     0.8990     0.8990     0.0000
  6 H      0.7318     1.0000     0.2682     0.8990     0.8990    -0.0000
  7 H      0.7622     1.0000     0.2378     0.9093     0.9093    -0.0000
  8 H      0.7318     1.0000     0.2682     0.8989     0.8989     0.0000
  9 H      0.7318     1.0000     0.2682     0.8989     0.8989    -0.0000

  Mayer bond orders larger than 0.100000
B(  0-C ,  1-C ) :   0.9397 B(  0-C ,  4-H ) :   0.9140 B(  0-C ,  5-H ) :   0.9033 
B(  0-C ,  6-H ) :   0.9033 B(  1-C ,  2-C ) :   0.9399 B(  1-C ,  3-O ) :   2.0566 
B(  2-C ,  7-H ) :   0.9140 B(  2-C ,  8-H ) :   0.9032 B(  2-C ,  9-H ) :   0.9032 


-------
TIMINGS
-------

Total SCF time: 0 days 0 hours 0 min 9 sec 

Total time                  ....       9.819 sec
Sum of individual times     ....       9.735 sec  ( 99.1%)

Fock matrix formation       ....       9.384 sec  ( 95.6%)
  Split-RI-J                ....       0.640 sec  (  6.8% of F)
  Chain of spheres X        ....       5.846 sec  ( 62.3% of F)
  XC integration            ....       1.436 sec  ( 15.3% of F)
    Basis function eval.    ....       0.595 sec  ( 41.4% of XC)
    Density eval.           ....       0.241 sec  ( 16.8% of XC)
    XC-Functional eval.     ....       0.279 sec  ( 19.4% of XC)
    XC-Potential eval.      ....       0.243 sec  ( 16.9% of XC)
Diagonalization             ....       0.005 sec  (  0.1%)
Density matrix formation    ....       0.000 sec  (  0.0%)
Population analysis         ....       0.001 sec  (  0.0%)
Initial guess               ....       0.002 sec  (  0.0%)
Orbital Transformation      ....       0.000 sec  (  0.0%)
Orbital Orthonormalization  ....       0.000 sec  (  0.0%)
DIIS solution               ....       0.002 sec  (  0.0%)
SOSCF solution              ....       0.002 sec  (  0.0%)
Grid generation             ....       0.337 sec  (  3.4%)

Maximum memory used throughout the entire SCF-calculation: 50.0 MB


-------------------------------------------------------------------------------
                          DFT DISPERSION CORRECTION                            
                                                                               
                              DFTD3 V3.1  Rev 1                                
                          USING Becke-Johnson damping                          
-------------------------------------------------------------------------------
The PBEh-3c composite method is recognized
Using three-body term ABC
Active option DFTDOPT                   ...         4   

molecular C6(AA) [au] = 764.409632 


            DFT-D V3
 parameters
 s6 scaling factor         :     1.0000 
 a1 scaling factor         :     0.4860 
 s8 scaling factor         :     0.0000 
 a2 scaling factor         :     4.5000 
 Damping factor alpha9(ATM):    16.0000 
 ad hoc parameters k1-k3   :    16.0000     1.3333    -4.0000 

 Edisp/kcal,au: -2.056932869941  -0.003277930829 
 E6   /kcal   :  -2.062320501 
 E8   /kcal   :  -0.000000000 
 E6(ABC)      :   0.005387631 
 % E8         :   0.000000000 
 % E6(ABC)    :  -0.261925454 

-------------------------   ----------------
Dispersion correction           -0.003277931
-------------------------   ----------------

------------------   -----------------
gCP correction             0.012950097
------------------   -----------------

-------------------------   --------------------
FINAL SINGLE POINT ENERGY      -192.740594138183
-------------------------   --------------------

------------------------------------------------------------------------------
                         ORCA SCF GRADIENT CALCULATION
------------------------------------------------------------------------------

 ... reading COSX grid (gridx3)
Gradient of the Kohn-Sham DFT energy:
Kohn-Sham wavefunction type      ... RKS
Hartree-Fock exchange scaling    ...    0.420
Number of operators              ...    1
Number of atoms                  ...   10
Basis set dimensions             ...   72
Integral neglect threshold       ... 2.5e-11
Integral primitive cutoff        ... 2.5e-12
SHARK Integral package           ... ON

Nuc. rep. gradient       (SHARK) ... done (  0.0 sec)
HCore & Overlap gradient (SHARK) ... done (  0.0 sec)
RI-J gradient            (SHARK) ... done (  0.2 sec)
COSX-gradient                    ... done (  1.2 sec)
Exchange-correlation gradient    ... done
Dispersion correction            ... done
gCP correction                   ... done

------------------
CARTESIAN GRADIENT
------------------

   1   C   :    0.003365945    0.017722942    0.000003909
   2   C   :    0.001774827   -0.028513163   -0.000000017
   3   C   :   -0.005730245    0.017337270   -0.000003989
   4   O   :   -0.000586907    0.010207581   -0.000000025
   5   H   :    0.005958952   -0.013312566   -0.000000030
   6   H   :   -0.005078350    0.002363673   -0.011813104
   7   H   :   -0.005075823    0.002362572    0.011809173
   8   H   :   -0.004351691   -0.013972744    0.000000034
   9   H   :    0.004821478    0.002893906    0.011829241
  10   H   :    0.004819081    0.002892528   -0.011825284

Difference to translation invariance:
           :   -0.0000827332   -0.0000180002   -0.0000000930

Difference to rotation invariance:
           :   -0.0000003452   -0.0000011829    0.0001196453

Norm of the cartesian gradient     ...    0.0518763443
RMS gradient                       ...    0.0094712813
MAX gradient                       ...    0.0285131628

-------
TIMINGS
-------

Total SCF gradient time            ...        2.289 sec

One electron gradient       ....       0.024 sec  (  1.0%)
RI-J Coulomb gradient       ....       0.169 sec  (  7.4%)
COSX gradient               ....       1.244 sec  ( 54.4%)
XC gradient                 ....       0.468 sec  ( 20.5%)
CPCM gradient               ....       0.102 sec  (  4.4%)
   A-Matrix (El+Nuc)        ....       0.020 sec  (  0.9%)
   Potential                ....       0.081 sec  (  3.6%)

Maximum memory used throughout the entire SCFGRAD-calculation: 38.9 MB
------------------------------------------------------------------------------
                         ORCA GEOMETRY RELAXATION STEP
------------------------------------------------------------------------------

Reading the OPT-File                    .... done
Getting information on internals        .... done
Copying old internal coords+grads       .... done
Making the new internal coordinates     .... (new redundants).... done
Validating the new internal coordinates .... (new redundants).... done
Calculating the B-matrix                .... done
Calculating the G,G- and P matrices     .... done
Transforming gradient to internals      .... done
Projecting the internal gradient        .... done
Number of atoms                         ....  10
Number of internal coordinates          ....  36
Current Energy                          ....  -192.740594138 Eh
Current gradient norm                   ....     0.051876344 Eh/bohr
Maximum allowed component of the step   ....  0.300
Current trust radius                    ....  0.300
Evaluating the initial hessian          ....  (Almloef) done
Projecting the Hessian                  .... done
Forming the augmented Hessian           .... done
Diagonalizing the augmented Hessian     .... done
Last element of RFO vector              ....  0.993668692
Lowest eigenvalues of augmented Hessian:
 -0.004211809  0.012859407  0.012859719  0.012860032  0.132412695
Length of the computed step             ....  0.113065894
The final length of the internal step   ....  0.113065894
Converting the step to cartesian space:
 Initial RMS(Int)=    0.0188443157
Transforming coordinates:
 Iter   0:  RMS(Cart)=    0.0205978161 RMS(Int)=    1.4810806946
 Iter   1:  RMS(Cart)=    0.0002942333 RMS(Int)=    0.0001271301
 Iter   2:  RMS(Cart)=    0.0000039479 RMS(Int)=    0.0000024652
 Iter   3:  RMS(Cart)=    0.0000000800 RMS(Int)=    0.0000000584
done
Storing new coordinates                 .... done

                                .--------------------.
          ----------------------|Geometry convergence|-------------------------
          Item                value                   Tolerance       Converged
          ---------------------------------------------------------------------
          RMS gradient        0.0064376735            0.0001000000      NO
          MAX gradient        0.0142564999            0.0003000000      NO
          RMS step            0.0188443157            0.0020000000      NO
          MAX step            0.0420798990            0.0040000000      NO
          ........................................................
          Max(Bonds)      0.0223      Max(Angles)    1.58
          Max(Dihed)        0.56      Max(Improp)    0.00
          ---------------------------------------------------------------------

The optimization has not yet converged - more geometry cycles are needed


    ---------------------------------------------------------------------------
                         Redundant Internal Coordinates
                            (Angstroem and degrees)

        Definition                    Value    dE/dq     Step     New-Value
    ----------------------------------------------------------------------------
     1. B(C   1,C   0)                1.5001 -0.004237  0.0053    1.5054   
     2. B(C   2,C   1)                1.5001 -0.004379  0.0055    1.5056   
     3. B(O   3,C   1)                1.2212  0.010226 -0.0052    1.2160   
     4. B(H   4,C   0)                1.1100  0.014220 -0.0222    1.0878   
     5. B(H   5,C   0)                1.1102  0.012862 -0.0201    1.0901   
     6. B(H   6,C   0)                1.1101  0.012857 -0.0201    1.0901   
     7. B(H   7,C   2)                1.1100  0.014256 -0.0223    1.0877   
     8. B(H   8,C   2)                1.1102  0.012903 -0.0202    1.0900   
     9. B(H   9,C   2)                1.1101  0.012899 -0.0202    1.0900   
    10. A(H   5,C   0,H   6)          109.12  0.002821   -0.94    108.18   
    11. A(H   4,C   0,H   6)          108.59  0.001771   -0.13    108.46   
    12. A(C   1,C   0,H   4)          111.45 -0.005108    1.09    112.54   
    13. A(C   1,C   0,H   5)          109.52 -0.000533    0.03    109.55   
    14. A(C   1,C   0,H   6)          109.52 -0.000533    0.03    109.55   
    15. A(H   4,C   0,H   5)          108.59  0.001771   -0.13    108.46   
    16. A(C   2,C   1,O   3)          119.23 -0.005561    0.79    120.02   
    17. A(C   0,C   1,O   3)          119.23 -0.005550    0.79    120.02   
    18. A(C   0,C   1,C   2)          121.55  0.011111   -1.58    119.97   
    19. A(H   7,C   2,H   9)          108.59  0.001713   -0.12    108.47   
    20. A(C   1,C   2,H   9)          109.52 -0.000475    0.02    109.54   
    21. A(H   7,C   2,H   8)          108.59  0.001713   -0.12    108.47   
    22. A(C   1,C   2,H   8)          109.52 -0.000475    0.02    109.54   
    23. A(H   8,C   2,H   9)          109.12  0.002761   -0.93    108.19   
    24. A(C   1,C   2,H   7)          111.46 -0.005051    1.08    112.53   
    25. D(O   3,C   1,C   0,H   5)     59.82  0.001401   -0.56     59.26   
    26. D(O   3,C   1,C   0,H   4)    180.00 -0.000000    0.00    180.00   
    27. D(C   2,C   1,C   0,H   4)      0.00 -0.000000    0.00      0.00   
    28. D(O   3,C   1,C   0,H   6)    -59.82 -0.001401    0.56    -59.26   
    29. D(C   2,C   1,C   0,H   6)    120.18 -0.001401    0.56    120.74   
    30. D(C   2,C   1,C   0,H   5)   -120.18  0.001401   -0.56   -120.74   
    31. D(H   7,C   2,C   1,C   0)      0.00 -0.000000    0.00      0.00   
    32. D(H   9,C   2,C   1,O   3)    -59.82 -0.001400    0.56    -59.26   
    33. D(H   9,C   2,C   1,C   0)    120.18 -0.001400    0.56    120.74   
    34. D(H   8,C   2,C   1,O   3)     59.82  0.001400   -0.56     59.26   
    35. D(H   8,C   2,C   1,C   0)   -120.18  0.001400   -0.56   -120.74   
    36. D(H   7,C   2,C   1,O   3)    180.00 -0.000000    0.00    180.00   
    ----------------------------------------------------------------------------

         *************************************************************
         *                GEOMETRY OPTIMIZATION CYCLE   2            *
         *************************************************************
---------------------------------
CARTESIAN COORDINATES (ANGSTROEM)
---------------------------------
  C     -7.113851    1.391952   -0.000001
  C     -5.856355    2.219628    0.000000
  C     -4.511072    1.543555    0.000001
  O     -5.927121    3.433556    0.000000
  H     -6.909728    0.323482    0.000001
  H     -7.707241    1.629993   -0.882862
  H     -7.707247    1.629997    0.882855
  H     -4.589880    0.458675   -0.000001
  H     -3.949541    1.849004    0.882873
  H     -3.949535    1.849008   -0.882866

----------------------------
CARTESIAN COORDINATES (A.U.)
----------------------------
  NO LB      ZA    FRAG     MASS         X           Y           Z
   0 C     6.0000    0    12.011  -13.443230    2.630408   -0.000001
   1 C     6.0000    0    12.011  -11.066906    4.194489    0.000000
   2 C     6.0000    0    12.011   -8.524690    2.916895    0.000001
   3 O     8.0000    0    15.999  -11.200636    6.488480    0.000001
   4 H     1.0000    0     1.008  -13.057493    0.611293    0.000002
   5 H     1.0000    0     1.008  -14.564574    3.080240   -1.668367
   6 H     1.0000    0     1.008  -14.564587    3.080248    1.668353
   7 H     1.0000    0     1.008   -8.673617    0.866771   -0.000001
   8 H     1.0000    0     1.008   -7.463550    3.494111    1.668388
   9 H     1.0000    0     1.008   -7.463539    3.494119   -1.668376

--------------------------------
INTERNAL COORDINATES (ANGSTROEM)
--------------------------------
 C      0   0   0     0.000000000000     0.00000000     0.00000000
 C      1   0   0     1.505438297452     0.00000000     0.00000000
 C      2   1   0     1.505610094835   119.96549117     0.00000000
 O      2   1   3     1.215988939771   120.01634236   179.99998937
 H      1   2   3     1.087792908168   112.53704319     0.00000000
 H      1   2   3     1.090054373508   109.55130188   239.25818032
 H      1   2   3     1.090054308681   109.55143872   120.74230843
 H      3   2   1     1.087737934193   112.52702683     0.00000000
 H      3   2   1     1.089990752115   109.54080350   239.25874385
 H      3   2   1     1.089990773615   109.54093770   120.74165305

---------------------------
INTERNAL COORDINATES (A.U.)
---------------------------
 C      0   0   0     0.000000000000     0.00000000     0.00000000
 C      1   0   0     2.844866093700     0.00000000     0.00000000
 C      2   1   0     2.845190743706   119.96549117     0.00000000
 O      2   1   3     2.297886078044   120.01634236   179.99998937
 H      1   2   3     2.055630686859   112.53704319     0.00000000
 H      1   2   3     2.059904237013   109.55130188   239.25818032
 H      1   2   3     2.059904114507   109.55143872   120.74230843
 H      3   2   1     2.055526801103   112.52702683     0.00000000
 H      3   2   1     2.059784010003   109.54080350   239.25874385
 H      3   2   1     2.059784050633   109.54093770   120.74165305

------------------------------------------------------------------------------
                   ___                                                        
                  /   \      - P O W E R E D   B Y -                         
                 /     \                                                     
                 |  |  |   _    _      __       _____    __    __             
                 |  |  |  | |  | |    /  \     |  _  \  |  |  /  |          
                  \  \/   | |  | |   /    \    | | | |  |  | /  /          
                 / \  \   | |__| |  /  /\  \   | |_| |  |  |/  /          
                |  |  |   |  __  | /  /__\  \  |    /   |      \           
                |  |  |   | |  | | |   __   |  |    \   |  |\   \          
                \     /   | |  | | |  |  |  |  | |\  \  |  | \   \       
                 \___/    |_|  |_| |__|  |__|  |_| \__\ |__|  \__/        
                                                                              
                      - O R C A' S   B I G   F R I E N D -                    
                                      &                                       
                       - I N T E G R A L  F E E D E R -                       
                                                                              
 v1 FN, 2020, v2 2021                                                         
------------------------------------------------------------------------------


Reading SHARK input file Acetone.SHARKINP.tmp ... ok
----------------------
SHARK INTEGRAL PACKAGE
----------------------

Number of atoms                             ...     10
Number of basis functions                   ...     72
Number of shells                            ...     40
Maximum angular momentum                    ...      2
Integral batch strategy                     ... SHARK/LIBINT Hybrid
RI-J (if used) integral strategy            ... SPLIT-RIJ (Revised 2003 algorithm where possible)
Printlevel                                  ...      1
Contraction scheme used                     ... SEGMENTED contraction
Coulomb Range Separation                    ... NOT USED
Exchange Range Separation                   ... NOT USED
Finite Nucleus Model                        ... NOT USED
Auxiliary Coulomb fitting basis             ... AVAILABLE
   # of basis functions in Aux-J            ...    262
   # of shells in Aux-J                     ...     90
   Maximum angular momentum in Aux-J        ...      4
Auxiliary J/K fitting basis                 ... NOT available
Auxiliary Correlation fitting basis         ... NOT available
Auxiliary 'external' fitting basis          ... NOT available
Integral threshold                          ...     2.500000e-11
Primitive cut-off                           ...     2.500000e-12
Primitive pair pre-selection threshold      ...     2.500000e-12

Calculating pre-screening integrals         ... done (  0.0 sec) Dimension = 40
Organizing shell pair data                  ... done (  0.0 sec)
Shell pair information
Total number of shell pairs                 ...       820
Shell pairs after pre-screening             ...       805
Total number of primitive shell pairs       ...      2996
Primitive shell pairs kept                  ...      2306
          la=0 lb=0:    391 shell pairs
          la=1 lb=0:    224 shell pairs
          la=1 lb=1:     36 shell pairs
          la=2 lb=0:    112 shell pairs
          la=2 lb=1:     32 shell pairs
          la=2 lb=2:     10 shell pairs

Calculating one electron integrals          ... done (  0.0 sec)
Calculating RI/J V-Matrix + Cholesky decomp.... done (  0.0 sec)
Calculating Nuclear repulsion               ... done (  0.0 sec) ENN=    119.653528986889 Eh

SHARK setup successfully completed in   0.1 seconds

Maximum memory used throughout the entire GTOINT-calculation: 9.5 MB

Diagonalization of the overlap matrix:
Smallest eigenvalue                        ... 6.255e-03
Time for diagonalization                   ...    0.001 sec
Threshold for overlap eigenvalues          ... 1.000e-08
Number of eigenvalues below threshold      ... 0
Time for construction of square roots      ...    0.000 sec
Total time needed                          ...    0.001 sec

-------------------
DFT GRID GENERATION
-------------------

General Integration Accuracy     IntAcc      ... 4.159
Radial Grid Type                 RadialGrid  ... OptM3 with GC (2021)
Angular Grid (max. ang.)         AngularGrid ... 3 (Lebedev-194)
Angular grid pruning method      GridPruning ... 4 (adaptive)
Weight generation scheme         WeightScheme... Becke
Basis function cutoff            BFCut       ... 1.0000e-11
Integration weight cutoff        WCut        ... 1.0000e-14
Angular grids for H and He will be reduced by one unit
Partially contracted basis set               ... off
Rotationally invariant grid construction     ... off

Total number of grid points                  ...    21805
Total number of batches                      ...      345
Average number of points per batch           ...       63
Average number of grid points per atom       ...     2180
Time for grid setup =    0.098 sec

--------------------
COSX GRID GENERATION
--------------------

GRIDX 1
-------
General Integration Accuracy     IntAcc      ... 3.816
Radial Grid Type                 RadialGrid  ... OptM3 with GC (2021)
Angular Grid (max. ang.)         AngularGrid ... 1 (Lebedev-50)
Angular grid pruning method      GridPruning ... 4 (adaptive)
Weight generation scheme         WeightScheme... Becke
Basis function cutoff            BFCut       ... 1.0000e-11
Integration weight cutoff        WCut        ... 1.0000e-14
Angular grids for H and He will be reduced by one unit
Partially contracted basis set               ... on
Rotationally invariant grid construction     ... off

Total number of grid points                  ...     5630
Total number of batches                      ...       94
Average number of points per batch           ...       59
Average number of grid points per atom       ...      563
UseSFitting                                  ... on

GRIDX 2
-------
General Integration Accuracy     IntAcc      ... 4.020
Radial Grid Type                 RadialGrid  ... OptM3 with GC (2021)
Angular Grid (max. ang.)         AngularGrid ... 2 (Lebedev-110)
Angular grid pruning method      GridPruning ... 4 (adaptive)
Weight generation scheme         WeightScheme... Becke
Basis function cutoff            BFCut       ... 1.0000e-11
Integration weight cutoff        WCut        ... 1.0000e-14
Angular grids for H and He will be reduced by one unit
Partially contracted basis set               ... on
Rotationally invariant grid construction     ... off

Total number of grid points                  ...    12026
Total number of batches                      ...      192
Average number of points per batch           ...       62
Average number of grid points per atom       ...     1203
UseSFitting                                  ... on

GRIDX 3
-------
General Integration Accuracy     IntAcc      ... 4.338
Radial Grid Type                 RadialGrid  ... OptM3 with GC (2021)
Angular Grid (max. ang.)         AngularGrid ... 3 (Lebedev-194)
Angular grid pruning method      GridPruning ... 4 (adaptive)
Weight generation scheme         WeightScheme... Becke
Basis function cutoff            BFCut       ... 1.0000e-11
Integration weight cutoff        WCut        ... 1.0000e-14
Angular grids for H and He will be reduced by one unit
Partially contracted basis set               ... on
Rotationally invariant grid construction     ... off

Total number of grid points                  ...    26456
Total number of batches                      ...      419
Average number of points per batch           ...       63
Average number of grid points per atom       ...     2646
UseSFitting                                  ... on

Time for X-Grid setup             =    0.248 sec


--------------------
CPCM SOLVATION MODEL
--------------------
CPCM parameters:
  Epsilon                                         ...      80.4000
  Refrac                                          ...       1.3300
  Rsolv                                           ...       1.3000
  Surface type                                    ... GAUSSIAN VDW
  Epsilon function type                           ...         CPCM
Radii:
 Radius for C  used is    3.8550 Bohr (=   2.0400 Ang.)
 Radius for O  used is    3.4469 Bohr (=   1.8240 Ang.)
 Radius for H  used is    2.4944 Bohr (=   1.3200 Ang.)
Calculating surface                               ...        done! (  0.0s)
GEPOL surface points                              ...          620
GEPOL Volume                                      ...     582.6221
GEPOL Surface-area                                ...     377.0159
Calculating surface distance matrix               ...        done! (  0.0s)
Performing Cholesky decomposition & store         ...        done! (  0.0s)
Overall time for CPCM initialization              ...                 0.0s
--------------
SCF ITERATIONS
--------------
ITER       Energy         Delta-E        Max-DP      RMS-DP      [F,P]     Damp
               ***  Starting incremental Fock matrix formation  ***
  0   -192.7519430350   0.000000000000 0.00313667  0.00017534  0.0088369 0.7000
                      *** Initiating the SOSCF procedure ***
                      *** Re-Reading the Fockian *** 
                      *** Removing any level shift *** 
ITER      Energy       Delta-E        Grad      Rot      Max-DP    RMS-DP
  1   -192.75213439  -0.0001913509  0.000621  0.000621  0.006549  0.000458
               *** Restarting incremental Fock matrix formation ***
  2   -192.75246831  -0.0003339263  0.001398  0.001634  0.004447  0.000217
  3   -192.75248648  -0.0000181644  0.001065  0.000755  0.001883  0.000092
  4   -192.75251164  -0.0000251596  0.000053  0.000074  0.000119  0.000009
  5   -192.75251168  -0.0000000391  0.000034  0.000046  0.000071  0.000003
  6   -192.75251169  -0.0000000125  0.000016  0.000021  0.000037  0.000002
  7   -192.75251169  -0.0000000022  0.000012  0.000007  0.000016  0.000001
                  ***Gradient check signals convergence***
              ***Rediagonalizing the Fockian in SOSCF/NRSCF***

               *****************************************************
               *                     SUCCESS                       *
               *           SCF CONVERGED AFTER   8 CYCLES          *
               *****************************************************

Old exchange energy                            =    -10.877130835 Eh
New exchange energy                            =    -10.877111444 Eh
Exchange energy change after final integration =      0.000019391 Eh
Total energy after final integration           =   -192.752492301 Eh
Final COS-X integration done in                =     1.040 sec
Total Energy       :         -192.75249230 Eh           -5245.06197 eV
  Last Energy change         ...   -1.3538e-09  Tolerance :   1.0000e-08
  Last MAX-Density change    ...    7.7716e-16  Tolerance :   1.0000e-07
             **** THE GBW FILE WAS UPDATED (Acetone.gbw) ****
             **** DENSITY Acetone.scfp WAS UPDATED ****
             **** ENERGY FILE WAS UPDATED (Acetone.en.tmp) ****
             **** THE GBW FILE WAS UPDATED (Acetone.gbw) ****
             **** DENSITY Acetone.scfp WAS UPDATED ****
Total SCF time: 0 days 0 hours 0 min 7 sec 

Maximum memory used throughout the entire SCF-calculation: 50.0 MB


-------------------------------------------------------------------------------
                          DFT DISPERSION CORRECTION                            
                                                                               
                              DFTD3 V3.1  Rev 1                                
                          USING Becke-Johnson damping                          
-------------------------------------------------------------------------------
-------------------------   ----------------
Dispersion correction           -0.003285660
-------------------------   ----------------

------------------   -----------------
gCP correction             0.012835352
------------------   -----------------

-------------------------   --------------------
FINAL SINGLE POINT ENERGY      -192.742942607524
-------------------------   --------------------

------------------------------------------------------------------------------
                         ORCA SCF GRADIENT CALCULATION
------------------------------------------------------------------------------

 ... reading COSX grid (gridx3)
Gradient of the Kohn-Sham DFT energy:
Kohn-Sham wavefunction type      ... RKS
Hartree-Fock exchange scaling    ...    0.420
Number of operators              ...    1
Number of atoms                  ...   10
Basis set dimensions             ...   72
Integral neglect threshold       ... 2.5e-11
Integral primitive cutoff        ... 2.5e-12
SHARK Integral package           ... ON

Nuc. rep. gradient       (SHARK) ... done (  0.0 sec)
HCore & Overlap gradient (SHARK) ... done (  0.0 sec)
RI-J gradient            (SHARK) ... done (  0.2 sec)
COSX-gradient                    ... done (  1.3 sec)
Exchange-correlation gradient    ... done
Dispersion correction            ... done
gCP correction                   ... done

------------------
CARTESIAN GRADIENT
------------------

   1   C   :   -0.004391659    0.005377532    0.000000189
   2   C   :    0.000843084   -0.013194336   -0.000000009
   3   C   :    0.003536318    0.005909951   -0.000000174
   4   O   :   -0.000300018    0.005039187    0.000000096
   5   H   :    0.000992485    0.000002403   -0.000000118
   6   H   :    0.001292811   -0.000667874   -0.000413323
   7   H   :    0.001292732   -0.000667817    0.000413328
   8   H   :   -0.000975604   -0.000127756    0.000000121
   9   H   :   -0.001189631   -0.000854495    0.000404265
  10   H   :   -0.001189500   -0.000854423   -0.000404300

Difference to translation invariance:
           :   -0.0000889826   -0.0000376269    0.0000000745

Difference to rotation invariance:
           :    0.0000005268    0.0000009906    0.0004264925

Norm of the cartesian gradient     ...    0.0175233814
RMS gradient                       ...    0.0031993171
MAX gradient                       ...    0.0131943357

-------
TIMINGS
-------

Total SCF gradient time            ...        2.302 sec

One electron gradient       ....       0.024 sec  (  1.0%)
RI-J Coulomb gradient       ....       0.170 sec  (  7.4%)
COSX gradient               ....       1.273 sec  ( 55.3%)
XC gradient                 ....       0.466 sec  ( 20.3%)
CPCM gradient               ....       0.095 sec  (  4.1%)
   A-Matrix (El+Nuc)        ....       0.015 sec  (  0.6%)
   Potential                ....       0.081 sec  (  3.5%)

Maximum memory used throughout the entire SCFGRAD-calculation: 38.9 MB
------------------------------------------------------------------------------
                         ORCA GEOMETRY RELAXATION STEP
------------------------------------------------------------------------------

Reading the OPT-File                    .... done
Getting information on internals        .... done
Copying old internal coords+grads       .... done
Making the new internal coordinates     .... (new redundants).... done
Validating the new internal coordinates .... (new redundants).... done
Calculating the B-matrix                .... done
Calculating the G,G- and P matrices     .... done
Transforming gradient to internals      .... done
Projecting the internal gradient        .... done
Number of atoms                         ....  10
Number of internal coordinates          ....  36
Current Energy                          ....  -192.742942608 Eh
Current gradient norm                   ....     0.017523381 Eh/bohr
Maximum allowed component of the step   ....  0.300
Current trust radius                    ....  0.300
Updating the Hessian (BFGS)             .... done
Forming the augmented Hessian           .... done
Diagonalizing the augmented Hessian     .... done
Last element of RFO vector              ....  0.999334305
Lowest eigenvalues of augmented Hessian:
 -0.000294882  0.012859407  0.012859719  0.012860032  0.127943466
Length of the computed step             ....  0.036506455
The final length of the internal step   ....  0.036506455
Converting the step to cartesian space:
 Initial RMS(Int)=    0.0060844092
Transforming coordinates:
 Iter   0:  RMS(Cart)=    0.0060476476 RMS(Int)=    0.0060876633
 Iter   1:  RMS(Cart)=    0.0000652266 RMS(Int)=    0.0000294085
 Iter   2:  RMS(Cart)=    0.0000002259 RMS(Int)=    0.0000002621
 Iter   3:  RMS(Cart)=    0.0000000046 RMS(Int)=    0.0000000022
done
Storing new coordinates                 .... done

                                .--------------------.
          ----------------------|Geometry convergence|-------------------------
          Item                value                   Tolerance       Converged
          ---------------------------------------------------------------------
          Energy change      -0.0023484693            0.0000050000      NO
          RMS gradient        0.0016188807            0.0001000000      NO
          MAX gradient        0.0055952109            0.0003000000      NO
          RMS step            0.0060844092            0.0020000000      NO
          MAX step            0.0171865645            0.0040000000      NO
          ........................................................
          Max(Bonds)      0.0032      Max(Angles)    0.98
          Max(Dihed)        0.39      Max(Improp)    0.00
          ---------------------------------------------------------------------

The optimization has not yet converged - more geometry cycles are needed


    ---------------------------------------------------------------------------
                         Redundant Internal Coordinates
                            (Angstroem and degrees)

        Definition                    Value    dE/dq     Step     New-Value
    ----------------------------------------------------------------------------
[...]
Radial Grid Type                 RadialGrid  ... OptM3 with GC (2021)
Angular Grid (max. ang.)         AngularGrid ... 3 (Lebedev-194)
Angular grid pruning method      GridPruning ... 4 (adaptive)
Weight generation scheme         WeightScheme... Becke
Basis function cutoff            BFCut       ... 1.0000e-11
Integration weight cutoff        WCut        ... 1.0000e-14
Angular grids for H and He will be reduced by one unit
Partially contracted basis set               ... on
Rotationally invariant grid construction     ... off

Total number of grid points                  ...    26458
Total number of batches                      ...      419
Average number of points per batch           ...       63
Average number of grid points per atom       ...     2646
UseSFitting                                  ... on

Time for X-Grid setup             =    0.289 sec


--------------------
CPCM SOLVATION MODEL
--------------------
CPCM parameters:
  Epsilon                                         ...      80.4000
  Refrac                                          ...       1.3300
  Rsolv                                           ...       1.3000
  Surface type                                    ... GAUSSIAN VDW
  Epsilon function type                           ...         CPCM
Radii:
 Radius for C  used is    3.8550 Bohr (=   2.0400 Ang.)
 Radius for O  used is    3.4469 Bohr (=   1.8240 Ang.)
 Radius for H  used is    2.4944 Bohr (=   1.3200 Ang.)
Calculating surface                               ...        done! (  0.0s)
GEPOL surface points                              ...          622
GEPOL Volume                                      ...     583.5946
GEPOL Surface-area                                ...     377.4043
Calculating surface distance matrix               ...        done! (  0.0s)
Performing Cholesky decomposition & store         ...        done! (  0.0s)
Overall time for CPCM initialization              ...                 0.0s
--------------
SCF ITERATIONS
--------------
ITER       Energy         Delta-E        Max-DP      RMS-DP      [F,P]     Damp
               ***  Starting incremental Fock matrix formation  ***
                      *** Initiating the SOSCF procedure ***
                      *** Re-Reading the Fockian *** 
                      *** Removing any level shift *** 
ITER      Energy       Delta-E        Grad      Rot      Max-DP    RMS-DP
  0   -192.75262288 -192.7526228759  0.000072  0.000072  0.000108  0.000009
               *** Restarting incremental Fock matrix formation ***
  1   -192.75262301  -0.0000001383  0.000030  0.000074  0.000092  0.000005
  2   -192.75262302  -0.0000000042  0.000038  0.000036  0.000064  0.000002
  3   -192.75262303  -0.0000000143  0.000004  0.000007  0.000010  0.000000
                  ***Gradient check signals convergence***
              ***Rediagonalizing the Fockian in SOSCF/NRSCF***

               *****************************************************
               *                     SUCCESS                       *
               *           SCF CONVERGED AFTER   4 CYCLES          *
               *****************************************************

Old exchange energy                            =    -10.876616751 Eh
New exchange energy                            =    -10.876596404 Eh
Exchange energy change after final integration =      0.000020347 Eh
Total energy after final integration           =   -192.752602684 Eh
Final COS-X integration done in                =     1.049 sec

----------------
TOTAL SCF ENERGY
----------------

Total Energy       :         -192.75260268 Eh           -5245.06497 eV

Components:
Nuclear Repulsion  :          119.60156248 Eh            3254.52397 eV
Electronic Energy  :         -312.35416517 Eh           -8499.58894 eV
One Electron Energy:         -497.79786956 Eh          -13545.76868 eV
Two Electron Energy:          185.44370439 Eh            5046.17974 eV
Max COSX asymmetry :            0.00000363 Eh               0.00010 eV
CPCM Dielectric    :           -0.00974781 Eh              -0.26525 eV

Virial components:
Potential Energy   :         -384.08987794 Eh          -10451.61693 eV
Kinetic Energy     :          191.33727526 Eh            5206.55196 eV
Virial Ratio       :            2.00739703


DFT components:
N(Alpha)           :       15.999838052748 electrons
N(Beta)            :       15.999838052748 electrons
N(Total)           :       31.999676105496 electrons
E(X)               :      -14.450240766115 Eh       
E(C)               :       -1.376930079525 Eh       
E(XC)              :      -15.827170845641 Eh       
DFET-embed. en.    :        0.000000000000 Eh       
CPCM Solvation Model Properties:
Surface-charge          :           -0.01218793
Charge-correction       :           -0.00014958 Eh              -0.00407 eV
Free-energy (cav+disp)  :  This term is not implemented in the current solvation scheme

---------------
SCF CONVERGENCE
---------------

  Last Energy change         ...    1.1134e-09  Tolerance :   1.0000e-08
  Last MAX-Density change    ...    9.9920e-16  Tolerance :   1.0000e-07
  Last RMS-Density change    ...    5.1314e-17  Tolerance :   5.0000e-09
  Last Orbital Gradient      ...    1.5079e-06  Tolerance :   1.0000e-05
  Last Orbital Rotation      ...    1.5554e-06  Tolerance :   1.0000e-05

             **** THE GBW FILE WAS UPDATED (Acetone.gbw) ****
             **** DENSITY Acetone.scfp WAS UPDATED ****
             **** ENERGY FILE WAS UPDATED (Acetone.en.tmp) ****
             **** THE GBW FILE WAS UPDATED (Acetone.gbw) ****
             **** DENSITY Acetone.scfp WAS UPDATED ****
----------------
ORBITAL ENERGIES
----------------

  NO   OCC          E(Eh)            E(eV) 
   0   2.0000     -19.486104      -530.2438 
   1   2.0000     -10.541577      -286.8509 
   2   2.0000     -10.430528      -283.8291 
   3   2.0000     -10.430452      -283.8270 
   4   2.0000      -1.156464       -31.4690 
   5   2.0000      -0.851209       -23.1626 
   6   2.0000      -0.791335       -21.5333 
   7   2.0000      -0.602253       -16.3881 
   8   2.0000      -0.521415       -14.1884 
   9   2.0000      -0.517406       -14.0793 
  10   2.0000      -0.512696       -13.9512 
  11   2.0000      -0.454145       -12.3579 
  12   2.0000      -0.453963       -12.3530 
  13   2.0000      -0.423180       -11.5153 
  14   2.0000      -0.396617       -10.7925 
  15   2.0000      -0.308917        -8.4061 
  16   0.0000       0.013391         0.3644 
  17   0.0000       0.156676         4.2634 
  18   0.0000       0.180243         4.9047 
  19   0.0000       0.207880         5.6567 
  20   0.0000       0.224674         6.1137 
  21   0.0000       0.238855         6.4996 
  22   0.0000       0.241527         6.5723 
  23   0.0000       0.246613         6.7107 
  24   0.0000       0.326666         8.8890 
  25   0.0000       0.342866         9.3299 
  26   0.0000       0.486754        13.2452 
  27   0.0000       0.526906        14.3378 
  28   0.0000       0.571992        15.5647 
  29   0.0000       0.600323        16.3356 
  30   0.0000       0.604089        16.4381 
  31   0.0000       0.608252        16.5514 
  32   0.0000       0.620828        16.8936 
  33   0.0000       0.724344        19.7104 
  34   0.0000       0.730113        19.8674 
  35   0.0000       0.880676        23.9644 
  36   0.0000       0.928914        25.2770 
  37   0.0000       1.002171        27.2705 
  38   0.0000       1.024781        27.8857 
  39   0.0000       1.049951        28.5706 
  40   0.0000       1.059194        28.8221 
  41   0.0000       1.063987        28.9525 
  42   0.0000       1.090030        29.6612 
  43   0.0000       1.122507        30.5450 
  44   0.0000       1.198743        32.6194 
  45   0.0000       1.215713        33.0812 
  46   0.0000       1.380291        37.5596 
  47   0.0000       1.408914        38.3385 
  48   0.0000       1.526020        41.5251 
  49   0.0000       1.747255        47.5452 
  50   0.0000       1.813792        49.3558 
  51   0.0000       1.848765        50.3074 
  52   0.0000       1.849724        50.3335 
  53   0.0000       1.857894        50.5559 
  54   0.0000       1.937791        52.7300 
  55   0.0000       2.051689        55.8293 
  56   0.0000       2.086533        56.7775 
  57   0.0000       2.237889        60.8961 
  58   0.0000       2.273199        61.8569 
  59   0.0000       2.299064        62.5607 
  60   0.0000       2.306907        62.7741 
  61   0.0000       2.379045        64.7371 
  62   0.0000       2.404965        65.4424 
  63   0.0000       2.499264        68.0084 
  64   0.0000       2.708065        73.6902 
  65   0.0000       2.794832        76.0513 
  66   0.0000       2.968481        80.7765 
  67   0.0000       3.077770        83.7504 
  68   0.0000      13.545513       368.5922 
  69   0.0000      13.866012       377.3134 
  70   0.0000      14.031637       381.8202 
  71   0.0000      25.665380       698.3905 

                    ********************************
                    * MULLIKEN POPULATION ANALYSIS *
                    ********************************

-----------------------
MULLIKEN ATOMIC CHARGES
-----------------------
   0 C :   -0.764740
   1 C :    0.366643
   2 C :   -0.764609
   3 O :   -0.405473
   4 H :    0.245791
   5 H :    0.269139
   6 H :    0.269139
   7 H :    0.245858
   8 H :    0.269127
   9 H :    0.269126
Sum of atomic charges:    0.0000000

--------------------------------
MULLIKEN REDUCED ORBITAL CHARGES
--------------------------------
  0 C s       :     3.409885  s :     3.409885
      pz      :     1.175587  p :     3.321689
      px      :     1.030388
      py      :     1.115713
      dz2     :     0.007069  d :     0.033167
      dxz     :     0.008611
      dyz     :     0.002295
      dx2y2   :     0.008286
      dxy     :     0.006905
  1 C s       :     3.125677  s :     3.125677
      pz      :     0.680789  p :     2.407934
      px      :     0.890243
      py      :     0.836901
      dz2     :     0.005369  d :     0.099747
      dxz     :     0.005391
      dyz     :     0.017948
      dx2y2   :     0.027634
      dxy     :     0.043404
  2 C s       :     3.409837  s :     3.409837
      pz      :     1.175522  p :     3.321606
      px      :     1.009367
      py      :     1.136716
      dz2     :     0.007077  d :     0.033166
      dxz     :     0.007866
      dyz     :     0.003039
      dx2y2   :     0.009376
      dxy     :     0.005808
  3 O s       :     3.754459  s :     3.754459
      pz      :     1.369462  p :     4.622368
      px      :     1.841429
      py      :     1.411476
      dz2     :     0.002452  d :     0.028646
      dxz     :     0.000094
      dyz     :     0.011291
      dx2y2   :     0.008122
      dxy     :     0.006687
  4 H s       :     0.754209  s :     0.754209
  5 H s       :     0.730861  s :     0.730861
  6 H s       :     0.730861  s :     0.730861
  7 H s       :     0.754142  s :     0.754142
  8 H s       :     0.730873  s :     0.730873
  9 H s       :     0.730874  s :     0.730874


                     *******************************
                     * LOEWDIN POPULATION ANALYSIS *
                     *******************************

----------------------
LOEWDIN ATOMIC CHARGES
----------------------
   0 C :   -0.404554
   1 C :    0.112923
   2 C :   -0.404637
   3 O :   -0.249418
   4 H :    0.143958
   5 H :    0.164441
   6 H :    0.164441
   7 H :    0.144013
   8 H :    0.164417
   9 H :    0.164416

-------------------------------
LOEWDIN REDUCED ORBITAL CHARGES
-------------------------------
  0 C s       :     2.966012  s :     2.966012
      pz      :     1.152593  p :     3.376284
      px      :     1.104022
      py      :     1.119669
      dz2     :     0.012693  d :     0.062258
      dxz     :     0.015276
      dyz     :     0.003359
      dx2y2   :     0.016287
      dxy     :     0.014643
  1 C s       :     2.880022  s :     2.880022
      pz      :     0.689034  p :     2.780641
      px      :     1.055643
      py      :     1.035964
      dz2     :     0.012024  d :     0.226415
      dxz     :     0.010119
      dyz     :     0.034535
      dx2y2   :     0.060597
      dxy     :     0.109139
  2 C s       :     2.966072  s :     2.966072
      pz      :     1.152554  p :     3.376332
      px      :     1.096103
      py      :     1.127675
      dz2     :     0.012703  d :     0.062233
      dxz     :     0.014254
      dyz     :     0.004374
      dx2y2   :     0.018600
      dxy     :     0.012302
  3 O s       :     3.514517  s :     3.514517
      pz      :     1.361214  p :     4.678942
      px      :     1.817804
      py      :     1.499925
      dz2     :     0.006122  d :     0.055959
      dxz     :     0.000133
      dyz     :     0.013993
      dx2y2   :     0.019195
      dxy     :     0.016516
  4 H s       :     0.856042  s :     0.856042
  5 H s       :     0.835559  s :     0.835559
  6 H s       :     0.835559  s :     0.835559
  7 H s       :     0.855987  s :     0.855987
  8 H s       :     0.835583  s :     0.835583
  9 H s       :     0.835584  s :     0.835584


                      *****************************
                      * MAYER POPULATION ANALYSIS *
                      *****************************

  NA   - Mulliken gross atomic population
  ZA   - Total nuclear charge
  QA   - Mulliken gross atomic charge
  VA   - Mayer's total valence
  BVA  - Mayer's bonded valence
  FA   - Mayer's free valence

  ATOM       NA         ZA         QA         VA         BVA        FA
  0 C      6.7647     6.0000    -0.7647     3.6457     3.6457    -0.0000
  1 C      5.6334     6.0000     0.3666     3.9192     3.9192    -0.0000
  2 C      6.7646     6.0000    -0.7646     3.6459     3.6459     0.0000
  3 O      8.4055     8.0000    -0.4055     2.1498     2.1498    -0.0000
  4 H      0.7542     1.0000     0.2458     0.9050     0.9050    -0.0000
  5 H      0.7309     1.0000     0.2691     0.8957     0.8957     0.0000
  6 H      0.7309     1.0000     0.2691     0.8957     0.8957    -0.0000
  7 H      0.7541     1.0000     0.2459     0.9050     0.9050    -0.0000
  8 H      0.7309     1.0000     0.2691     0.8957     0.8957    -0.0000
  9 H      0.7309     1.0000     0.2691     0.8957     0.8957    -0.0000

  Mayer bond orders larger than 0.100000
B(  0-C ,  1-C ) :   0.9404 B(  0-C ,  4-H ) :   0.9124 B(  0-C ,  5-H ) :   0.9030 
B(  0-C ,  6-H ) :   0.9030 B(  1-C ,  2-C ) :   0.9406 B(  1-C ,  3-O ) :   2.0734 
B(  2-C ,  7-H ) :   0.9123 B(  2-C ,  8-H ) :   0.9030 B(  2-C ,  9-H ) :   0.9030 


-------
TIMINGS
-------

Total SCF time: 0 days 0 hours 0 min 5 sec 

Total time                  ....       5.148 sec
Sum of individual times     ....       5.062 sec  ( 98.3%)

Fock matrix formation       ....       4.636 sec  ( 90.1%)
  Split-RI-J                ....       0.301 sec  (  6.5% of F)
  Chain of spheres X        ....       3.280 sec  ( 70.8% of F)
  XC integration            ....       0.547 sec  ( 11.8% of F)
    Basis function eval.    ....       0.237 sec  ( 43.3% of XC)
    Density eval.           ....       0.084 sec  ( 15.3% of XC)
    XC-Functional eval.     ....       0.108 sec  ( 19.7% of XC)
    XC-Potential eval.      ....       0.078 sec  ( 14.3% of XC)
Diagonalization             ....       0.001 sec  (  0.0%)
Density matrix formation    ....       0.000 sec  (  0.0%)
Population analysis         ....       0.002 sec  (  0.0%)
Initial guess               ....       0.001 sec  (  0.0%)
Orbital Transformation      ....       0.000 sec  (  0.0%)
Orbital Orthonormalization  ....       0.001 sec  (  0.0%)
DIIS solution               ....       0.000 sec  (  0.0%)
SOSCF solution              ....       0.002 sec  (  0.0%)
Grid generation             ....       0.421 sec  (  8.2%)

Maximum memory used throughout the entire SCF-calculation: 50.0 MB


-------------------------------------------------------------------------------
                          DFT DISPERSION CORRECTION                            
                                                                               
                              DFTD3 V3.1  Rev 1                                
                          USING Becke-Johnson damping                          
-------------------------------------------------------------------------------
The PBEh-3c composite method is recognized
Using three-body term ABC
Active option DFTDOPT                   ...         4   

molecular C6(AA) [au] = 764.216371 


            DFT-D V3
 parameters
 s6 scaling factor         :     1.0000 
 a1 scaling factor         :     0.4860 
 s8 scaling factor         :     0.0000 
 a2 scaling factor         :     4.5000 
 Damping factor alpha9(ATM):    16.0000 
 ad hoc parameters k1-k3   :    16.0000     1.3333    -4.0000 

 Edisp/kcal,au: -2.061727427027  -0.003285571441 
 E6   /kcal   :  -2.067026995 
 E8   /kcal   :  -0.000000000 
 E6(ABC)      :   0.005299568 
 % E8         :   0.000000000 
 % E6(ABC)    :  -0.257045039 

-------------------------   ----------------
Dispersion correction           -0.003285571
-------------------------   ----------------

------------------   -----------------
gCP correction             0.012695821
------------------   -----------------

-------------------------   --------------------
FINAL SINGLE POINT ENERGY      -192.743192435025
-------------------------   --------------------

                                *** OPTIMIZATION RUN DONE ***

                            ***************************************
                            *     ORCA property calculations      *
                            ***************************************

                                    ---------------------
                                    Active property flags
                                    ---------------------
   (+) Dipole Moment


------------------------------------------------------------------------------
                       ORCA ELECTRIC PROPERTIES CALCULATION
------------------------------------------------------------------------------

Dipole Moment Calculation                       ... on
Quadrupole Moment Calculation                   ... off
Polarizability Calculation                      ... off
GBWName                                         ... Acetone.gbw
Electron density                                ... Acetone.scfp
The origin for moment calculation is the CENTER OF MASS  = (-11.059112,  4.063591 -0.000005)

-------------
DIPOLE MOMENT
-------------
                                X             Y             Z
Electronic contribution:     -0.20178       3.46125      -0.00003
Nuclear contribution   :      0.28121      -4.84042       0.00003
                        -----------------------------------------
Total Dipole Moment    :      0.07943      -1.37916       0.00000
                        -----------------------------------------
Magnitude (a.u.)       :      1.38145
Magnitude (Debye)      :      3.51137



--------------------
Rotational spectrum 
--------------------
 
Rotational constants in cm-1:     0.348199     0.278838     0.164180 
Rotational constants in MHz : 10438.737035  8359.350471  4921.979285 

 Dipole components along the rotational axes: 
x,y,z [a.u.] :    -0.000455    -1.381450    -0.000002 
x,y,z [Debye]:    -0.001157    -3.511368    -0.000004 

 

Timings for individual modules:

Sum of individual times         ...       52.828 sec (=   0.880 min)
GTO integral calculation        ...        0.636 sec (=   0.011 min)   1.2 %
SCF iterations                  ...       40.586 sec (=   0.676 min)  76.8 %
SCF Gradient evaluation         ...       11.538 sec (=   0.192 min)  21.8 %
Geometry relaxation             ...        0.068 sec (=   0.001 min)   0.1 %
                             ****ORCA TERMINATED NORMALLY****
TOTAL RUN TIME: 0 days 0 hours 0 minutes 53 seconds 208 msec
