
                                 *****************
                                 * O   R   C   A *
                                 *****************

                                            #,                                       
                                            ###                                      
                                            ####                                     
                                            #####                                    
                                            ######                                   
                                           ########,                                 
                                     ,,################,,,,,                         
                               ,,#################################,,                 
                          ,,##########################################,,             
                       ,#########################################, ''#####,          
                    ,#############################################,,   '####,        
                  ,##################################################,,,,####,       
                ,###########''''           ''''###############################       
              ,#####''   ,,,,##########,,,,          '''####'''          '####       
            ,##' ,,,,###########################,,,                        '##       
           ' ,,###''''                  '''############,,,                           
         ,,##''                                '''############,,,,        ,,,,,,###''
      ,#''                                            '''#######################'''  
     '                                                          ''''####''''         
             ,#######,   #######,   ,#######,      ##                                
            ,#'     '#,  ##    ##  ,#'     '#,    #''#        ######   ,####,        
            ##       ##  ##   ,#'  ##            #'  '#       #        #'  '#        
            ##       ##  #######   ##           ,######,      #####,   #    #        
            '#,     ,#'  ##    ##  '#,     ,#' ,#      #,         ##   #,  ,#        
             '#######'   ##     ##  '#######'  #'      '#     #####' # '####'        



                  #######################################################
                  #                        -***-                        #
                  #          Department of theory and spectroscopy      #
                  #    Directorship and core code : Frank Neese         #
                  #        Max Planck Institute fuer Kohlenforschung    #
                  #                Kaiser Wilhelm Platz 1               #
                  #                 D-45470 Muelheim/Ruhr               #
                  #                      Germany                        #
                  #                                                     #
                  #                  All rights reserved                #
                  #                        -***-                        #
                  #######################################################


                         Program Version 5.0.2 -  RELEASE  -


 With contributions from (in alphabetic order):
   Daniel Aravena         : Magnetic Suceptibility
   Michael Atanasov       : Ab Initio Ligand Field Theory (pilot matlab implementation)
   Alexander A. Auer      : GIAO ZORA, VPT2 properties, NMR spectrum
   Ute Becker             : Parallelization
   Giovanni Bistoni       : ED, misc. LED, open-shell LED, HFLD
   Martin Brehm           : Molecular dynamics
   Dmytro Bykov           : SCF Hessian
   Vijay G. Chilkuri      : MRCI spin determinant printing, contributions to CSF-ICE
   Dipayan Datta          : RHF DLPNO-CCSD density
   Achintya Kumar Dutta   : EOM-CC, STEOM-CC
   Dmitry Ganyushin       : Spin-Orbit,Spin-Spin,Magnetic field MRCI
   Miquel Garcia          : C-PCM and meta-GGA Hessian, CC/C-PCM, Gaussian charge scheme
   Yang Guo               : DLPNO-NEVPT2, F12-NEVPT2, CIM, IAO-localization
   Andreas Hansen         : Spin unrestricted coupled pair/coupled cluster methods
   Benjamin Helmich-Paris : MC-RPA, TRAH-SCF, COSX integrals
   Lee Huntington         : MR-EOM, pCC
   Robert Izsak           : Overlap fitted RIJCOSX, COSX-SCS-MP3, EOM
   Marcus Kettner         : VPT2
   Christian Kollmar      : KDIIS, OOCD, Brueckner-CCSD(T), CCSD density, CASPT2, CASPT2-K
   Simone Kossmann        : Meta GGA functionals, TD-DFT gradient, OOMP2, MP2 Hessian
   Martin Krupicka        : Initial AUTO-CI
   Lucas Lang             : DCDCAS
   Marvin Lechner         : AUTO-CI (C++ implementation), FIC-MRCC
   Dagmar Lenk            : GEPOL surface, SMD
   Dimitrios Liakos       : Extrapolation schemes; Compound Job, initial MDCI parallelization
   Dimitrios Manganas     : Further ROCIS development; embedding schemes
   Dimitrios Pantazis     : SARC Basis sets
   Anastasios Papadopoulos: AUTO-CI, single reference methods and gradients
   Taras Petrenko         : DFT Hessian,TD-DFT gradient, ASA, ECA, R-Raman, ABS, FL, XAS/XES, NRVS
   Peter Pinski           : DLPNO-MP2, DLPNO-MP2 Gradient
   Christoph Reimann      : Effective Core Potentials
   Marius Retegan         : Local ZFS, SOC
   Christoph Riplinger    : Optimizer, TS searches, QM/MM, DLPNO-CCSD(T), (RO)-DLPNO pert. Triples
   Tobias Risthaus        : Range-separated hybrids, TD-DFT gradient, RPA, STAB
   Michael Roemelt        : Original ROCIS implementation
   Masaaki Saitow         : Open-shell DLPNO-CCSD energy and density
   Barbara Sandhoefer     : DKH picture change effects
   Avijit Sen             : IP-ROCIS
   Kantharuban Sivalingam : CASSCF convergence, NEVPT2, FIC-MRCI
   Bernardo de Souza      : ESD, SOC TD-DFT
   Georgi Stoychev        : AutoAux, RI-MP2 NMR, DLPNO-MP2 response
   Willem Van den Heuvel  : Paramagnetic NMR
   Boris Wezisla          : Elementary symmetry handling
   Frank Wennmohs         : Technical directorship


 We gratefully acknowledge several colleagues who have allowed us to
 interface, adapt or use parts of their codes:
   Stefan Grimme, W. Hujo, H. Kruse, P. Pracht,  : VdW corrections, initial TS optimization,
                  C. Bannwarth, S. Ehlert          DFT functionals, gCP, sTDA/sTD-DF
   Ed Valeev, F. Pavosevic, A. Kumar             : LibInt (2-el integral package), F12 methods
   Garnet Chan, S. Sharma, J. Yang, R. Olivares  : DMRG
   Ulf Ekstrom                                   : XCFun DFT Library
   Mihaly Kallay                                 : mrcc  (arbitrary order and MRCC methods)
   Jiri Pittner, Ondrej Demel                    : Mk-CCSD
   Frank Weinhold                                : gennbo (NPA and NBO analysis)
   Christopher J. Cramer and Donald G. Truhlar   : smd solvation model
   Lars Goerigk                                  : TD-DFT with DH, B97 family of functionals
   V. Asgeirsson, H. Jonsson                     : NEB implementation
   FAccTs GmbH                                   : IRC, NEB, NEB-TS, DLPNO-Multilevel, CI-OPT
                                                   MM, QMMM, 2- and 3-layer-ONIOM, Crystal-QMMM,
                                                   LR-CPCM, SF, NACMEs, symmetry and pop. for TD-DFT,
                                                   nearIR, NL-DFT gradient (VV10), updates on ESD,
                                                   ML-optimized integration grids
   S Lehtola, MJT Oliveira, MAL Marques          : LibXC Library
   Liviu Ungur et al                             : ANISO software


 Your calculation uses the libint2 library for the computation of 2-el integrals
 For citations please refer to: http://libint.valeyev.net

 Your ORCA version has been built with support for libXC version: 5.1.0
 For citations please refer to: https://tddft.org/programs/libxc/

 This ORCA versions uses:
   CBLAS   interface :  Fast vector & matrix operations
   LAPACKE interface :  Fast linear algebra routines
   SCALAPACK package :  Parallel linear algebra routines
   Shared memory     :  Shared parallel matrices
   BLAS/LAPACK       :  OpenBLAS 0.3.15  USE64BITINT DYNAMIC_ARCH NO_AFFINITY Haswell SINGLE_THREADED
        Core in use  :  Haswell
   Copyright (c) 2011-2014, The OpenBLAS Project




***************************************
The coordinates will be read from file: Ar-1.xyz
***************************************


Your calculation utilizes the geometrical counterpoise correction gCP
Please cite in your paper:
H.Kruse, S. Grimme J.Chem.Phys., 136, (2012), 154101 
   

Your calculation utilizes the atom-pairwise dispersion correction
with the Becke-Johnson damping scheme (D3BJ)
Cite in your paper:
S.Grimme, S.Ehrlich, L.Goerigk, J Comput Chem, (2011), 32, 1456–1465 
S.Grimme, J.Antony, S.Ehrlich and H.Krieg, J.Chem.Phys., 132, (2010), 154104 
   

Your calculation employs the composite approach PBEh-3c.
Please cite in your paper:
S. Grimme, J. G. Brandenburg, C. Bannwarth, A. Hansen J.Chem.Phys., 143, (2015), 054107 
   

================================================================================

----- Orbital basis set information -----
Your calculation utilizes the basis: def2-mSVP

----- AuxJ basis set information -----
Your calculation utilizes the auxiliary basis: def2/J
   F. Weigend, Phys. Chem. Chem. Phys. 8, 1057 (2006).

================================================================================
                                        WARNINGS
                       Please study these warnings very carefully!
================================================================================


WARNING: Geometry Optimization
  ===> : Switching off AutoStart
         For restart on a previous wavefunction, please use MOREAD

INFO   : the flag for use of the SHARK integral package has been found!

================================================================================
                                       INPUT FILE
================================================================================
NAME = OPT_Ar-1.inp
|  1> ! PBEh-3c Opt
|  2> 
|  3> *xyzfile 1 1 Ar-1.xyz
|  4> 
|  5>                          ****END OF INPUT****
================================================================================

                       *****************************
                       * Geometry Optimization Run *
                       *****************************

Geometry optimization settings:
Update method            Update   .... BFGS
Choice of coordinates    CoordSys .... Z-matrix Internals
Initial Hessian          InHess   .... Almoef's Model

Convergence Tolerances:
Energy Change            TolE     ....  5.0000e-06 Eh
Max. Gradient            TolMAXG  ....  3.0000e-04 Eh/bohr
RMS Gradient             TolRMSG  ....  1.0000e-04 Eh/bohr
Max. Displacement        TolMAXD  ....  4.0000e-03 bohr
RMS Displacement         TolRMSD  ....  2.0000e-03 bohr
Strict Convergence                ....  False
------------------------------------------------------------------------------
                        ORCA OPTIMIZATION COORDINATE SETUP
------------------------------------------------------------------------------

The optimization will be done in new redundant internal coordinates
Making redundant internal coordinates   ...  (new redundants) done
Evaluating the initial hessian          ...  (Almloef) done
Evaluating the coordinates              ...  done
Calculating the B-matrix                .... done
Calculating the G-matrix                .... done
Diagonalizing the G-matrix              .... done
The first mode is                       ....   12
The number of degrees of freedom        ....   12

    -----------------------------------------------------------------
                    Redundant Internal Coordinates


    -----------------------------------------------------------------
         Definition                    Initial Value    Approx d2E/dq
    -----------------------------------------------------------------
      1. B(C   1,C   0)                  1.5144         0.395550   
      2. B(C   2,C   1)                  1.5186         0.389573   
      3. B(C   2,C   0)                  1.5144         0.395569   
      4. B(H   3,C   1)                  1.1113         0.333053   
      5. B(H   4,C   0)                  1.1093         0.335432   
      6. B(H   5,C   2)                  1.1113         0.333050   
      7. A(C   1,C   0,H   4)          107.7229         0.323585   
      8. A(C   1,C   0,C   2)           60.1814         0.370546   
      9. A(C   2,C   0,H   4)          107.7111         0.323587   
     10. A(C   2,C   1,H   3)          108.9139         0.322402   
     11. A(C   0,C   1,H   3)          109.4006         0.323207   
     12. A(C   0,C   1,C   2)           59.9089         0.369574   
     13. A(C   0,C   2,C   1)           59.9097         0.369577   
     14. A(C   1,C   2,H   5)          108.9258         0.322401   
     15. A(C   0,C   2,H   5)          109.3780         0.323209   
     16. D(H   3,C   1,C   0,H   4)    158.2070         0.010772   
     17. D(H   3,C   1,C   0,C   2)   -101.1349         0.010772   
     18. D(C   2,C   1,C   0,H   4)   -100.6581         0.010772   
     19. D(H   5,C   2,C   0,H   4)   -158.1609         0.010773   
     20. D(H   5,C   2,C   0,C   1)    101.1610         0.010773   
     21. D(C   0,C   2,C   1,H   3)    101.9622         0.010469   
     22. D(H   5,C   2,C   1,H   3)      0.0326         0.010469   
     23. D(H   5,C   2,C   1,C   0)   -101.9296         0.010469   
     24. D(C   1,C   2,C   0,H   4)    100.6781         0.010773   
    -----------------------------------------------------------------

Number of atoms                         .... 6
Number of degrees of freedom            .... 24

         *************************************************************
         *                GEOMETRY OPTIMIZATION CYCLE   1            *
         *************************************************************
---------------------------------
CARTESIAN COORDINATES (ANGSTROEM)
---------------------------------
  C     -4.959430   -4.772710   -7.196670
  C     -3.696380   -4.606560   -6.377750
  C     -5.032180   -4.809160   -5.684430
  H     -3.425850   -3.529760   -6.330840
  H     -4.990130   -5.819920   -7.561350
  H     -5.395830   -3.828480   -5.309040

----------------------------
CARTESIAN COORDINATES (A.U.)
----------------------------
  NO LB      ZA    FRAG     MASS         X           Y           Z
   0 C     6.0000    0    12.011   -9.371964   -9.019115  -13.599735
   1 C     6.0000    0    12.011   -6.985146   -8.705137  -12.052201
   2 C     6.0000    0    12.011   -9.509442   -9.087995  -10.742016
   3 H     1.0000    0     1.008   -6.473918   -6.670280  -11.963554
   4 H     1.0000    0     1.008   -9.429979  -10.998055  -14.288881
   5 H     1.0000    0     1.008  -10.196641   -7.234779  -10.032632

--------------------------------
INTERNAL COORDINATES (ANGSTROEM)
--------------------------------
 C      0   0   0     0.000000000000     0.00000000     0.00000000
 C      1   0   0     1.514440851073     0.00000000     0.00000000
 C      1   2   0     1.514427608900    60.18142216     0.00000000
 H      2   1   3     1.111253917428   109.40055569   258.86510254
 H      1   2   3     1.109316355464   107.72289887   259.34188557
 H      3   1   2     1.111257052621   109.37796404   101.16095063

---------------------------
INTERNAL COORDINATES (A.U.)
---------------------------
 C      0   0   0     0.000000000000     0.00000000     0.00000000
 C      1   0   0     2.861878454551     0.00000000     0.00000000
 C      1   2   0     2.861853430471    60.18142216     0.00000000
 H      2   1   3     2.099965569187   109.40055569   258.86510254
 H      1   2   3     2.096304107707   107.72289887   259.34188557
 H      3   1   2     2.099971493842   109.37796404   101.16095063

---------------------
BASIS SET INFORMATION
---------------------
There are 2 groups of distinct atoms

 Group   1 Type C   : 8s4p1d contracted to 4s2p1d pattern {5111/31/1}
 Group   2 Type H   : 4s contracted to 2s pattern {31}

Atom   0C    basis set group =>   1
Atom   1C    basis set group =>   1
Atom   2C    basis set group =>   1
Atom   3H    basis set group =>   2
Atom   4H    basis set group =>   2
Atom   5H    basis set group =>   2
---------------------------------
AUXILIARY/J BASIS SET INFORMATION
---------------------------------
There are 2 groups of distinct atoms

 Group   1 Type C   : 12s5p4d2f1g contracted to 6s4p3d1f1g pattern {711111/2111/211/2/1}
 Group   2 Type H   : 5s2p1d contracted to 3s1p1d pattern {311/2/1}

Atom   0C    basis set group =>   1
Atom   1C    basis set group =>   1
Atom   2C    basis set group =>   1
Atom   3H    basis set group =>   2
Atom   4H    basis set group =>   2
Atom   5H    basis set group =>   2
------------------------------------------------------------------------------
                           ORCA GTO INTEGRAL CALCULATION
                           -- RI-GTO INTEGRALS CHOSEN --
------------------------------------------------------------------------------
------------------------------------------------------------------------------
                   ___                                                        
                  /   \      - P O W E R E D   B Y -                         
                 /     \                                                     
                 |  |  |   _    _      __       _____    __    __             
                 |  |  |  | |  | |    /  \     |  _  \  |  |  /  |          
                  \  \/   | |  | |   /    \    | | | |  |  | /  /          
                 / \  \   | |__| |  /  /\  \   | |_| |  |  |/  /          
                |  |  |   |  __  | /  /__\  \  |    /   |      \           
                |  |  |   | |  | | |   __   |  |    \   |  |\   \          
                \     /   | |  | | |  |  |  |  | |\  \  |  | \   \       
                 \___/    |_|  |_| |__|  |__|  |_| \__\ |__|  \__/        
                                                                              
                      - O R C A' S   B I G   F R I E N D -                    
                                      &                                       
                       - I N T E G R A L  F E E D E R -                       
                                                                              
 v1 FN, 2020, v2 2021                                                         
------------------------------------------------------------------------------


Reading SHARK input file OPT_Ar-1.SHARKINP.tmp ... ok
----------------------
SHARK INTEGRAL PACKAGE
----------------------

Number of atoms                             ...      6
Number of basis functions                   ...     51
Number of shells                            ...     27
Maximum angular momentum                    ...      2
Integral batch strategy                     ... SHARK/LIBINT Hybrid
RI-J (if used) integral strategy            ... SPLIT-RIJ (Revised 2003 algorithm where possible)
Printlevel                                  ...      1
Contraction scheme used                     ... SEGMENTED contraction
Coulomb Range Separation                    ... NOT USED
Exchange Range Separation                   ... NOT USED
Finite Nucleus Model                        ... NOT USED
Auxiliary Coulomb fitting basis             ... AVAILABLE
   # of basis functions in Aux-J            ...    180
   # of shells in Aux-J                     ...     60
   Maximum angular momentum in Aux-J        ...      4
Auxiliary J/K fitting basis                 ... NOT available
Auxiliary Correlation fitting basis         ... NOT available
Auxiliary 'external' fitting basis          ... NOT available
Integral threshold                          ...     2.500000e-11
Primitive cut-off                           ...     2.500000e-12
Primitive pair pre-selection threshold      ...     2.500000e-12

Calculating pre-screening integrals         ... done (  0.1 sec) Dimension = 27
Organizing shell pair data                  ... done (  0.0 sec)
Shell pair information
Total number of shell pairs                 ...       378
Shell pairs after pre-screening             ...       375
Total number of primitive shell pairs       ...      1374
Primitive shell pairs kept                  ...      1156
          la=0 lb=0:    168 shell pairs
          la=1 lb=0:    108 shell pairs
          la=1 lb=1:     21 shell pairs
          la=2 lb=0:     54 shell pairs
          la=2 lb=1:     18 shell pairs
          la=2 lb=2:      6 shell pairs

Calculating one electron integrals          ... done (  0.0 sec)
Calculating RI/J V-Matrix + Cholesky decomp.... done (  0.0 sec)
Calculating Nuclear repulsion               ... done (  0.0 sec) ENN=     55.738630392686 Eh

SHARK setup successfully completed in   0.3 seconds

Maximum memory used throughout the entire GTOINT-calculation: 9.1 MB
-------------------------------------------------------------------------------
                                 ORCA SCF
-------------------------------------------------------------------------------

------------
SCF SETTINGS
------------
Hamiltonian:
 Density Functional     Method          .... DFT(GTOs)
 Exchange Functional    Exchange        .... PBE
   PBE kappa parameter   XKappa         ....  1.024500
   PBE mue parameter    XMuePBE         ....  0.123457
 Correlation Functional Correlation     .... PBE
   PBE beta parameter  CBetaPBE         ....  0.030000
 LDA part of GGA corr.  LDAOpt          .... PW91-LDA
 Gradients option       PostSCFGGA      .... off
 Hybrid DFT is turned on
   Fraction HF Exchange ScalHFX         ....  0.420000
   Scaling of DF-GGA-X  ScalDFX         ....  0.580000
   Scaling of DF-GGA-C  ScalDFC         ....  1.000000
   Scaling of DF-LDA-C  ScalLDAC        ....  1.000000
   Perturbative correction              ....  0.000000
   Density functional embedding theory  .... OFF
 RI-approximation to the Coulomb term is turned on
   Number of AuxJ basis functions       .... 180
   RIJ-ON(X) (HFX calculated with O(N)) .... on
   Number of AuxJ basis functions       .... 180
   RIJ-COSX (HFX calculated with COS-X)).... on


General Settings:
 Integral files         IntName         .... OPT_Ar-1
 Hartree-Fock type      HFTyp           .... RHF
 Total Charge           Charge          ....    1
 Multiplicity           Mult            ....    1
 Number of Electrons    NEL             ....   20
 Basis Dimension        Dim             ....   51
 Nuclear Repulsion      ENuc            ....     55.7386303927 Eh

Convergence Acceleration:
 DIIS                   CNVDIIS         .... on
   Start iteration      DIISMaxIt       ....    12
   Startup error        DIISStart       ....  0.200000
   # of expansion vecs  DIISMaxEq       ....     5
   Bias factor          DIISBfac        ....   1.050
   Max. coefficient     DIISMaxC        ....  10.000
 Trust-Rad. Augm. Hess. CNVTRAH         .... auto
   Auto Start mean grad. ratio tolernc. ....  1.125000
   Auto Start start iteration           ....    20
   Auto Start num. interpolation iter.  ....    10
   Max. Number of Micro iterations      ....    16
   Max. Number of Macro iterations      .... Maxiter - #DIIS iter
   Number of Davidson start vectors     ....     2
   Converg. threshold I  (grad. norm)   ....   1.000e-05
   Converg. threshold II (energy diff.) ....   1.000e-08
   Grad. Scal. Fac. for Micro threshold ....   0.100
   Minimum threshold for Micro iter.    ....   0.010
   NR start threshold (gradient norm)   ....   0.001
   Initial trust radius                 ....   0.400
   Minimum AH scaling param. (alpha)    ....   1.000
   Maximum AH scaling param. (alpha)    .... 1000.000
   Orbital update algorithm             .... Taylor
   White noise on init. David. guess    .... on
   Maximum white noise                  ....   0.010
   Quad. conv. algorithm                .... NR
   COSX micro iterations for RIJONX calc.... off
 SOSCF                  CNVSOSCF        .... on
   Start iteration      SOSCFMaxIt      ....   150
   Startup grad/error   SOSCFStart      ....  0.003300
 Level Shifting         CNVShift        .... on
   Level shift para.    LevelShift      ....    0.2500
   Turn off err/grad.   ShiftErr        ....    0.0010
 Zerner damping         CNVZerner       .... off
 Static damping         CNVDamp         .... on
   Fraction old density DampFac         ....    0.7000
   Max. Damping (<1)    DampMax         ....    0.9800
   Min. Damping (>=0)   DampMin         ....    0.0000
   Turn off err/grad.   DampErr         ....    0.1000
 Fernandez-Rico         CNVRico         .... off

SCF Procedure:
 Maximum # iterations   MaxIter         ....   125
 SCF integral mode      SCFMode         .... Direct
   Integral package                     .... SHARK and LIBINT hybrid scheme
 Reset frequency        DirectResetFreq ....    20
 Integral Threshold     Thresh          ....  2.500e-11 Eh
 Primitive CutOff       TCut            ....  2.500e-12 Eh

Convergence Tolerance:
 Convergence Check Mode ConvCheckMode   .... Total+1el-Energy
 Convergence forced     ConvForced      .... 0
 Energy Change          TolE            ....  1.000e-08 Eh
 1-El. energy change                    ....  1.000e-05 Eh
 Orbital Gradient       TolG            ....  1.000e-05
 Orbital Rotation angle TolX            ....  1.000e-05
 DIIS Error             TolErr          ....  5.000e-07


Diagonalization of the overlap matrix:
Smallest eigenvalue                        ... 1.002e-02
Time for diagonalization                   ...    0.007 sec
Threshold for overlap eigenvalues          ... 1.000e-08
Number of eigenvalues below threshold      ... 0
Time for construction of square roots      ...    0.001 sec
Total time needed                          ...    0.009 sec

--------------------------------
INITIAL GUESS: MINIMAL BASIS EHT
--------------------------------
The minimal basis has 18 functions
EHT matrix was diagonalized
Basis set overlap was calculated now projecting the orbitals
Using GuessMode=FMatrix for the initial guess
C*T matrix was formed
Effective Fockian was calculated
Effective Fockian was diagonalized
Initial density was built
                      ------------------
                      INITIAL GUESS DONE
                      ------------------
-------------------
DFT GRID GENERATION
-------------------

General Integration Accuracy     IntAcc      ... 4.159
Radial Grid Type                 RadialGrid  ... OptM3 with GC (2021)
Angular Grid (max. ang.)         AngularGrid ... 3 (Lebedev-194)
Angular grid pruning method      GridPruning ... 4 (adaptive)
Weight generation scheme         WeightScheme... Becke
Basis function cutoff            BFCut       ... 1.0000e-11
Integration weight cutoff        WCut        ... 1.0000e-14
Angular grids for H and He will be reduced by one unit
Partially contracted basis set               ... off
Rotationally invariant grid construction     ... off

Total number of grid points                  ...    14355
Total number of batches                      ...      228
Average number of points per batch           ...       62
Average number of grid points per atom       ...     2392
Time for grid setup =    0.149 sec

--------------------
COSX GRID GENERATION
--------------------

GRIDX 1
-------
General Integration Accuracy     IntAcc      ... 3.816
Radial Grid Type                 RadialGrid  ... OptM3 with GC (2021)
Angular Grid (max. ang.)         AngularGrid ... 1 (Lebedev-50)
Angular grid pruning method      GridPruning ... 4 (adaptive)
Weight generation scheme         WeightScheme... Becke
Basis function cutoff            BFCut       ... 1.0000e-11
Integration weight cutoff        WCut        ... 1.0000e-14
Angular grids for H and He will be reduced by one unit
Partially contracted basis set               ... on
Rotationally invariant grid construction     ... off

Total number of grid points                  ...     3612
Total number of batches                      ...       60
Average number of points per batch           ...       60
Average number of grid points per atom       ...      602
UseSFitting                                  ... on

GRIDX 2
-------
General Integration Accuracy     IntAcc      ... 4.020
Radial Grid Type                 RadialGrid  ... OptM3 with GC (2021)
Angular Grid (max. ang.)         AngularGrid ... 2 (Lebedev-110)
Angular grid pruning method      GridPruning ... 4 (adaptive)
Weight generation scheme         WeightScheme... Becke
Basis function cutoff            BFCut       ... 1.0000e-11
Integration weight cutoff        WCut        ... 1.0000e-14
Angular grids for H and He will be reduced by one unit
Partially contracted basis set               ... on
Rotationally invariant grid construction     ... off

Total number of grid points                  ...     7967
Total number of batches                      ...      127
Average number of points per batch           ...       62
Average number of grid points per atom       ...     1328
UseSFitting                                  ... on

GRIDX 3
-------
General Integration Accuracy     IntAcc      ... 4.338
Radial Grid Type                 RadialGrid  ... OptM3 with GC (2021)
Angular Grid (max. ang.)         AngularGrid ... 3 (Lebedev-194)
Angular grid pruning method      GridPruning ... 4 (adaptive)
Weight generation scheme         WeightScheme... Becke
Basis function cutoff            BFCut       ... 1.0000e-11
Integration weight cutoff        WCut        ... 1.0000e-14
Angular grids for H and He will be reduced by one unit
Partially contracted basis set               ... on
Rotationally invariant grid construction     ... off

Total number of grid points                  ...    17619
Total number of batches                      ...      279
Average number of points per batch           ...       63
Average number of grid points per atom       ...     2936
UseSFitting                                  ... on

Time for X-Grid setup             =    0.356 sec

--------------
SCF ITERATIONS
--------------
ITER       Energy         Delta-E        Max-DP      RMS-DP      [F,P]     Damp
               ***  Starting incremental Fock matrix formation  ***
  0   -114.9126170222   0.000000000000 0.04523661  0.00385208  0.2957692 0.7000
  1   -115.0018418393  -0.089224817125 0.03381955  0.00315730  0.2093034 0.7000
                               ***Turning on DIIS***
  2   -115.0628653088  -0.061023469480 0.02277854  0.00233404  0.1477048 0.7000
  3   -115.1052293694  -0.042364060642 0.01808978  0.00175555  0.1039186 0.7000
  4   -115.1352213753  -0.029992005880 0.04697427  0.00437588  0.0724001 0.0000
  5   -115.2075512571  -0.072329881764 0.00325229  0.00034179  0.0040237 0.0000
                      *** Initiating the SOSCF procedure ***
                           *** Shutting down DIIS ***
                      *** Re-Reading the Fockian *** 
                      *** Removing any level shift *** 
ITER      Energy       Delta-E        Grad      Rot      Max-DP    RMS-DP
  6   -115.20772643  -0.0001751717  0.001633  0.001633  0.002112  0.000185
               *** Restarting incremental Fock matrix formation ***
  7   -115.20775460  -0.0000281687  0.001403  0.007614  0.002721  0.000241
  8   -115.20779252  -0.0000379214  0.000698  0.010386  0.004357  0.000387
  9   -115.20779731  -0.0000047949  0.001153  0.002247  0.001346  0.000124
 10   -115.20781241  -0.0000150917  0.000118  0.000363  0.000304  0.000024
 11   -115.20781271  -0.0000003085  0.000070  0.000257  0.000099  0.000011
 12   -115.20781281  -0.0000000942  0.000012  0.000107  0.000037  0.000004
 13   -115.20781281  -0.0000000047  0.000005  0.000021  0.000015  0.000001
 14   -115.20781281  -0.0000000002  0.000007  0.000012  0.000009  0.000001
                 **** Energy Check signals convergence ****
              ***Rediagonalizing the Fockian in SOSCF/NRSCF***

               *****************************************************
               *                     SUCCESS                       *
               *           SCF CONVERGED AFTER  15 CYCLES          *
               *****************************************************

Old exchange energy                            =     -6.720435682 Eh
New exchange energy                            =     -6.720448466 Eh
Exchange energy change after final integration =     -0.000012783 Eh
Total energy after final integration           =   -115.207825597 Eh
Final COS-X integration done in                =     1.173 sec

----------------
TOTAL SCF ENERGY
----------------

Total Energy       :         -115.20782560 Eh           -3134.96431 eV

Components:
Nuclear Repulsion  :           55.73863039 Eh            1516.72524 eV
Electronic Energy  :         -170.94645599 Eh           -4651.68955 eV
One Electron Energy:         -258.26724095 Eh           -7027.80891 eV
Two Electron Energy:           87.32078496 Eh            2376.11936 eV
Max COSX asymmetry :            0.00000338 Eh               0.00009 eV

Virial components:
Potential Energy   :         -229.21844891 Eh           -6237.35110 eV
Kinetic Energy     :          114.01062331 Eh            3102.38678 eV
Virial Ratio       :            2.01050080


DFT components:
N(Alpha)           :       10.000038563652 electrons
N(Beta)            :       10.000038563652 electrons
N(Total)           :       20.000077127304 electrons
E(X)               :       -8.952373882077 Eh       
E(C)               :       -0.832525479885 Eh       
E(XC)              :       -9.784899361962 Eh       
DFET-embed. en.    :        0.000000000000 Eh       

---------------
SCF CONVERGENCE
---------------

  Last Energy change         ...   -2.9935e-10  Tolerance :   1.0000e-08
  Last MAX-Density change    ...    8.8818e-16  Tolerance :   1.0000e-07
  Last RMS-Density change    ...    4.4248e-17  Tolerance :   5.0000e-09
  Last Orbital Gradient      ...    4.7362e-07  Tolerance :   1.0000e-05
  Last Orbital Rotation      ...    1.3887e-06  Tolerance :   1.0000e-05

             **** THE GBW FILE WAS UPDATED (OPT_Ar-1.gbw) ****
             **** DENSITY OPT_Ar-1.scfp WAS UPDATED ****
             **** ENERGY FILE WAS UPDATED (OPT_Ar-1.en.tmp) ****
             **** THE GBW FILE WAS UPDATED (OPT_Ar-1.gbw) ****
             **** DENSITY OPT_Ar-1.scfp WAS UPDATED ****
----------------
ORBITAL ENERGIES
----------------

  NO   OCC          E(Eh)            E(eV) 
   0   2.0000     -10.834511      -294.8220 
   1   2.0000     -10.809238      -294.1343 
   2   2.0000     -10.808967      -294.1270 
   3   2.0000      -1.262921       -34.3658 
   4   2.0000      -0.943406       -25.6714 
   5   2.0000      -0.912855       -24.8400 
   6   2.0000      -0.788924       -21.4677 
   7   2.0000      -0.737161       -20.0592 
   8   2.0000      -0.660358       -17.9692 
   9   2.0000      -0.592686       -16.1278 
  10   0.0000      -0.408855       -11.1255 
  11   0.0000      -0.380962       -10.3665 
  12   0.0000      -0.104268        -2.8373 
  13   0.0000      -0.101584        -2.7643 
  14   0.0000      -0.057497        -1.5646 
  15   0.0000      -0.032780        -0.8920 
  16   0.0000      -0.024684        -0.6717 
  17   0.0000       0.027704         0.7539 
  18   0.0000       0.207620         5.6496 
  19   0.0000       0.270432         7.3588 
  20   0.0000       0.279421         7.6034 
  21   0.0000       0.292951         7.9716 
  22   0.0000       0.308524         8.3954 
  23   0.0000       0.315341         8.5809 
  24   0.0000       0.366147         9.9634 
  25   0.0000       0.382259        10.4018 
  26   0.0000       0.432688        11.7740 
  27   0.0000       0.567581        15.4447 
  28   0.0000       0.687486        18.7075 
  29   0.0000       0.734348        19.9826 
  30   0.0000       0.768715        20.9178 
  31   0.0000       0.869555        23.6618 
  32   0.0000       0.942552        25.6481 
  33   0.0000       1.161654        31.6102 
  34   0.0000       1.261358        34.3233 
  35   0.0000       1.298248        35.3271 
  36   0.0000       1.371164        37.3113 
  37   0.0000       1.630936        44.3800 
  38   0.0000       1.658849        45.1396 
  39   0.0000       1.760462        47.9046 
  40   0.0000       1.785252        48.5792 
  41   0.0000       1.915883        52.1338 
  42   0.0000       1.942950        52.8704 
  43   0.0000       2.000334        54.4318 
  44   0.0000       2.037960        55.4557 
  45   0.0000       2.204477        59.9869 
  46   0.0000       2.219872        60.4058 
  47   0.0000       2.506133        68.1954 
  48   0.0000      13.081222       355.9582 
  49   0.0000      13.526922       368.0863 
  50   0.0000      13.555728       368.8701 

                    ********************************
                    * MULLIKEN POPULATION ANALYSIS *
                    ********************************

-----------------------
MULLIKEN ATOMIC CHARGES
-----------------------
   0 C :   -0.023963
   1 C :   -0.061559
   2 C :   -0.061525
   3 H :    0.370157
   4 H :    0.406746
   5 H :    0.370144
Sum of atomic charges:    1.0000000

--------------------------------
MULLIKEN REDUCED ORBITAL CHARGES
--------------------------------
  0 C s       :     3.496655  s :     3.496655
      pz      :     0.796340  p :     2.481197
      px      :     0.853248
      py      :     0.831609
      dz2     :     0.013518  d :     0.046111
      dxz     :     0.011356
      dyz     :     0.008235
      dx2y2   :     0.011112
      dxy     :     0.001889
  1 C s       :     3.472069  s :     3.472069
      pz      :     0.961477  p :     2.544947
      px      :     0.715776
      py      :     0.867693
      dz2     :     0.006744  d :     0.044543
      dxz     :     0.014590
      dyz     :     0.000655
      dx2y2   :     0.014874
      dxy     :     0.007680
  2 C s       :     3.471972  s :     3.471972
      pz      :     0.717124  p :     2.545009
      px      :     0.990550
      py      :     0.837336
      dz2     :     0.013421  d :     0.044544
      dxz     :     0.009231
      dyz     :     0.007252
      dx2y2   :     0.009357
      dxy     :     0.005282
  3 H s       :     0.629843  s :     0.629843
  4 H s       :     0.593254  s :     0.593254
  5 H s       :     0.629856  s :     0.629856


                     *******************************
                     * LOEWDIN POPULATION ANALYSIS *
                     *******************************

----------------------
LOEWDIN ATOMIC CHARGES
----------------------
   0 C :    0.128872
   1 C :    0.068613
   2 C :    0.068605
   3 H :    0.235672
   4 H :    0.262560
   5 H :    0.235677

-------------------------------
LOEWDIN REDUCED ORBITAL CHARGES
-------------------------------
  0 C s       :     3.069981  s :     3.069981
      pz      :     0.956752  p :     2.717926
      px      :     0.970881
      py      :     0.790293
      dz2     :     0.026886  d :     0.083220
      dxz     :     0.022450
      dyz     :     0.011846
      dx2y2   :     0.019250
      dxy     :     0.002788
  1 C s       :     3.056753  s :     3.056753
      pz      :     1.070339  p :     2.792936
      px      :     0.879931
      py      :     0.842666
      dz2     :     0.012016  d :     0.081698
      dxz     :     0.029147
      dyz     :     0.001347
      dx2y2   :     0.027985
      dxy     :     0.011203
  2 C s       :     3.056723  s :     3.056723
      pz      :     0.870632  p :     2.792972
      px      :     1.111387
      py      :     0.810953
      dz2     :     0.027639  d :     0.081700
      dxz     :     0.018887
      dyz     :     0.010565
      dx2y2   :     0.016100
      dxy     :     0.008508
  3 H s       :     0.764328  s :     0.764328
  4 H s       :     0.737440  s :     0.737440
  5 H s       :     0.764323  s :     0.764323


                      *****************************
                      * MAYER POPULATION ANALYSIS *
                      *****************************

  NA   - Mulliken gross atomic population
  ZA   - Total nuclear charge
  QA   - Mulliken gross atomic charge
  VA   - Mayer's total valence
  BVA  - Mayer's bonded valence
  FA   - Mayer's free valence

  ATOM       NA         ZA         QA         VA         BVA        FA
  0 C      6.0240     6.0000    -0.0240     3.3970     3.3970    -0.0000
  1 C      6.0616     6.0000    -0.0616     3.3173     3.3173     0.0000
  2 C      6.0615     6.0000    -0.0615     3.3175     3.3175     0.0000
  3 H      0.6298     1.0000     0.3702     0.8383     0.8383     0.0000
  4 H      0.5933     1.0000     0.4067     0.8088     0.8088    -0.0000
  5 H      0.6299     1.0000     0.3701     0.8383     0.8383     0.0000

  Mayer bond orders larger than 0.100000
B(  0-C ,  1-C ) :   1.2802 B(  0-C ,  2-C ) :   1.2804 B(  0-C ,  4-H ) :   0.8106 
B(  1-C ,  2-C ) :   1.2148 B(  1-C ,  3-H ) :   0.8306 B(  2-C ,  5-H ) :   0.8306 


-------
TIMINGS
-------

Total SCF time: 0 days 0 hours 0 min 12 sec 

Total time                  ....      12.773 sec
Sum of individual times     ....      12.619 sec  ( 98.8%)

Fock matrix formation       ....      12.076 sec  ( 94.5%)
  Split-RI-J                ....       0.866 sec  (  7.2% of F)
  Chain of spheres X        ....       8.700 sec  ( 72.0% of F)
  XC integration            ....       2.457 sec  ( 20.3% of F)
    Basis function eval.    ....       0.931 sec  ( 37.9% of XC)
    Density eval.           ....       0.516 sec  ( 21.0% of XC)
    XC-Functional eval.     ....       0.515 sec  ( 21.0% of XC)
    XC-Potential eval.      ....       0.360 sec  ( 14.7% of XC)
Diagonalization             ....       0.005 sec  (  0.0%)
Density matrix formation    ....       0.000 sec  (  0.0%)
Population analysis         ....       0.001 sec  (  0.0%)
Initial guess               ....       0.008 sec  (  0.1%)
Orbital Transformation      ....       0.000 sec  (  0.0%)
Orbital Orthonormalization  ....       0.000 sec  (  0.0%)
DIIS solution               ....       0.017 sec  (  0.1%)
SOSCF solution              ....       0.005 sec  (  0.0%)
Grid generation             ....       0.505 sec  (  4.0%)

Maximum memory used throughout the entire SCF-calculation: 46.5 MB


-------------------------------------------------------------------------------
                          DFT DISPERSION CORRECTION                            
                                                                               
                              DFTD3 V3.1  Rev 1                                
                          USING Becke-Johnson damping                          
-------------------------------------------------------------------------------
The PBEh-3c composite method is recognized
Using three-body term ABC
Active option DFTDOPT                   ...         4   

molecular C6(AA) [au] = 419.261556 


            DFT-D V3
 parameters
 s6 scaling factor         :     1.0000 
 a1 scaling factor         :     0.4860 
 s8 scaling factor         :     0.0000 
 a2 scaling factor         :     4.5000 
 Damping factor alpha9(ATM):    16.0000 
 ad hoc parameters k1-k3   :    16.0000     1.3333    -4.0000 

 Edisp/kcal,au: -1.031411600458  -0.001643658834 
 E6   /kcal   :  -1.031588229 
 E8   /kcal   :  -0.000000000 
 E6(ABC)      :   0.000176628 
 % E8         :   0.000000000 
 % E6(ABC)    :  -0.017124892 

-------------------------   ----------------
Dispersion correction           -0.001643659
-------------------------   ----------------

------------------   -----------------
gCP correction             0.006916841
------------------   -----------------

-------------------------   --------------------
FINAL SINGLE POINT ENERGY      -115.202552414181
-------------------------   --------------------

------------------------------------------------------------------------------
                         ORCA SCF GRADIENT CALCULATION
------------------------------------------------------------------------------

 ... reading COSX grid (gridx3)
Gradient of the Kohn-Sham DFT energy:
Kohn-Sham wavefunction type      ... RKS
Hartree-Fock exchange scaling    ...    0.420
Number of operators              ...    1
Number of atoms                  ...    6
Basis set dimensions             ...   51
Integral neglect threshold       ... 2.5e-11
Integral primitive cutoff        ... 2.5e-12
SHARK Integral package           ... ON

Nuc. rep. gradient       (SHARK) ... done (  0.0 sec)
HCore & Overlap gradient (SHARK) ... done (  0.0 sec)
RI-J gradient            (SHARK) ... done (  0.2 sec)
COSX-gradient                    ... done (  1.2 sec)
Exchange-correlation gradient    ... done
Dispersion correction            ... done
gCP correction                   ... done

------------------
CARTESIAN GRADIENT
------------------

   1   C   :   -0.084737680    0.137191638   -0.123375868
   2   C   :    0.147596060   -0.070947238    0.015208682
   3   C   :   -0.051966417   -0.101360297    0.118707744
   4   H   :   -0.053948573    0.023134564   -0.014296729
   5   H   :    0.030474428   -0.021283067    0.052539236
   6   H   :    0.012583375    0.033210104   -0.048857524

Difference to translation invariance:
           :    0.0000011933   -0.0000542958   -0.0000744590

Difference to rotation invariance:
           :    0.0002700128   -0.0009860030    0.0006573844

Norm of the cartesian gradient     ...    0.3267711390
RMS gradient                       ...    0.0770206961
MAX gradient                       ...    0.1475960604

-------
TIMINGS
-------

Total SCF gradient time            ...        2.308 sec

One electron gradient       ....       0.015 sec  (  0.6%)
RI-J Coulomb gradient       ....       0.181 sec  (  7.9%)
COSX gradient               ....       1.174 sec  ( 50.9%)
XC gradient                 ....       0.499 sec  ( 21.6%)

Maximum memory used throughout the entire SCFGRAD-calculation: 35.9 MB
------------------------------------------------------------------------------
                         ORCA GEOMETRY RELAXATION STEP
------------------------------------------------------------------------------

Reading the OPT-File                    .... done
Getting information on internals        .... done
Copying old internal coords+grads       .... done
Making the new internal coordinates     .... (new redundants).... done
Validating the new internal coordinates .... (new redundants).... done
Calculating the B-matrix                .... done
Calculating the G,G- and P matrices     .... done
Transforming gradient to internals      .... done
Projecting the internal gradient        .... done
Number of atoms                         ....   6
Number of internal coordinates          ....  24
Current Energy                          ....  -115.202552414 Eh
Current gradient norm                   ....     0.326771139 Eh/bohr
Maximum allowed component of the step   ....  0.300
Current trust radius                    ....  0.300
Evaluating the initial hessian          ....  (Almloef) done
Projecting the Hessian                  .... done
Forming the augmented Hessian           .... done
Diagonalizing the augmented Hessian     .... done
Last element of RFO vector              ....  0.877562327
Lowest eigenvalues of augmented Hessian:
 -0.088842361  0.043017764  0.066371652  0.066493029  0.178905489
Length of the computed step             ....  0.546357291
Warning: the length of the step is outside the trust region - taking restricted step instead
The input lambda is                     ....    -0.088842
   iter:   1  x=   -0.189606  g=    2.069263 f(x)=     0.208506
   iter:   2  x=   -0.279162  g=    0.834445 f(x)=     0.074730
   iter:   3  x=   -0.322913  g=    0.449012 f(x)=     0.019645
   iter:   4  x=   -0.329796  g=    0.346118 f(x)=     0.002382
   iter:   5  x=   -0.329933  g=    0.332916 f(x)=     0.000046
   iter:   6  x=   -0.329933  g=    0.332659 f(x)=     0.000000
   iter:   7  x=   -0.329933  g=    0.332659 f(x)=     0.000000
The output lambda is                    ....    -0.329933 (7 iterations)
The final length of the internal step   ....  0.300000000
Converting the step to cartesian space:
 Initial RMS(Int)=    0.0612372436
Transforming coordinates:
 Iter   0:  RMS(Cart)=    0.0450774625 RMS(Int)=    0.0619075040
 Iter   1:  RMS(Cart)=    0.0028186143 RMS(Int)=    0.0022955791
 Iter   2:  RMS(Cart)=    0.0000911289 RMS(Int)=    0.0001250541
 Iter   3:  RMS(Cart)=    0.0000099507 RMS(Int)=    0.0000084063
 Iter   4:  RMS(Cart)=    0.0000004469 RMS(Int)=    0.0000004970
 Iter   5:  RMS(Cart)=    0.0000000315 RMS(Int)=    0.0000000304
done
Storing new coordinates                 .... done

                                .--------------------.
          ----------------------|Geometry convergence|-------------------------
          Item                value                   Tolerance       Converged
          ---------------------------------------------------------------------
          RMS gradient        0.0339538057            0.0001000000      NO
          MAX gradient        0.0563760180            0.0003000000      NO
          RMS step            0.0612372436            0.0020000000      NO
          MAX step            0.1077905093            0.0040000000      NO
          ........................................................
          Max(Bonds)      0.0392      Max(Angles)    6.18
          Max(Dihed)        5.66      Max(Improp)    0.00
          ---------------------------------------------------------------------

The optimization has not yet converged - more geometry cycles are needed


    ---------------------------------------------------------------------------
                         Redundant Internal Coordinates
                            (Angstroem and degrees)

        Definition                    Value    dE/dq     Step     New-Value
    ----------------------------------------------------------------------------
     1. B(C   1,C   0)                1.5144  0.046465 -0.0340    1.4804   
     2. B(C   2,C   1)                1.5186  0.053598 -0.0392    1.4794   
     3. B(C   2,C   0)                1.5144  0.046449 -0.0340    1.4804   
     4. B(H   3,C   1)                1.1113  0.008684 -0.0069    1.1043   
     5. B(H   4,C   0)                1.1093  0.001971 -0.0016    1.1077   
     6. B(H   5,C   2)                1.1113  0.008712 -0.0070    1.1043   
     7. A(C   1,C   0,H   4)          107.72 -0.041398    4.72    112.44   
     8. A(C   1,C   0,C   2)           60.18  0.002833   -0.22     59.96   
     9. A(C   2,C   0,H   4)          107.71 -0.041445    4.73    112.44   
    10. A(C   2,C   1,H   3)          108.91 -0.029410    3.16    112.07   
    11. A(C   0,C   1,H   3)          109.40 -0.056376    6.18    115.58   
    12. A(C   0,C   1,C   2)           59.91 -0.001421    0.11     60.02   
    13. A(C   0,C   2,C   1)           59.91 -0.001412    0.11     60.02   
    14. A(C   1,C   2,H   5)          108.93 -0.029451    3.16    112.09   
    15. A(C   0,C   2,H   5)          109.38 -0.056374    6.17    115.55   
    16. D(H   3,C   1,C   0,H   4)    158.21  0.032049   -3.56    154.64   
    17. D(H   3,C   1,C   0,C   2)   -101.13  0.005705   -0.54   -101.67   
    18. D(C   2,C   1,C   0,H   4)   -100.66  0.026343   -3.03   -103.69   
    19. D(H   5,C   2,C   0,H   4)   -158.16 -0.032011    3.56   -154.60   
    20. D(H   5,C   2,C   0,C   1)    101.16 -0.005750    0.54    101.70   
    21. D(C   0,C   2,C   1,H   3)    101.96 -0.051445    5.66    107.62   
    22. D(H   5,C   2,C   1,H   3)      0.03 -0.000021    0.00      0.04   
    23. D(H   5,C   2,C   1,C   0)   -101.93  0.051424   -5.66   -107.59   
    24. D(C   1,C   2,C   0,H   4)    100.68 -0.026261    3.02    103.69   
    ----------------------------------------------------------------------------

         *************************************************************
         *                GEOMETRY OPTIMIZATION CYCLE   2            *
         *************************************************************
---------------------------------
CARTESIAN COORDINATES (ANGSTROEM)
---------------------------------
  C     -4.948106   -4.808668   -7.185291
  C     -3.725656   -4.577752   -6.382829
  C     -5.026993   -4.775083   -5.707355
  H     -3.385034   -3.528864   -6.325050
  H     -5.000262   -5.839773   -7.586797
  H     -5.413749   -3.836450   -5.272758

----------------------------
CARTESIAN COORDINATES (A.U.)
----------------------------
  NO LB      ZA    FRAG     MASS         X           Y           Z
   0 C     6.0000    0    12.011   -9.350565   -9.087065  -13.578232
   1 C     6.0000    0    12.011   -7.040469   -8.650698  -12.061799
   2 C     6.0000    0    12.011   -9.499639   -9.023599  -10.785337
   3 H     1.0000    0     1.008   -6.396788   -6.668586  -11.952613
   4 H     1.0000    0     1.008   -9.449126  -11.035572  -14.336969
   5 H     1.0000    0     1.008  -10.230503   -7.249841   -9.964069

--------------------------------
INTERNAL COORDINATES (ANGSTROEM)
--------------------------------
 C      0   0   0     0.000000000000     0.00000000     0.00000000
 C      1   0   0     1.480422686236     0.00000000     0.00000000
 C      2   1   0     1.479419694363    60.02233417     0.00000000
 H      2   1   3     1.104322704249   115.54410316   258.28729950
 H      1   2   3     1.107748463423   112.36672156   256.27522724
 H      3   2   1     1.104303195184   111.98611057   252.33281926

---------------------------
INTERNAL COORDINATES (A.U.)
---------------------------
 C      0   0   0     0.000000000000     0.00000000     0.00000000
 C      1   0   0     2.797593439430     0.00000000     0.00000000
 C      2   1   0     2.795698059476    60.02233417     0.00000000
 H      2   1   3     2.086867474502   115.54410316   258.28729950
 H      1   2   3     2.093341221141   112.36672156   256.27522724
 H      3   2   1     2.086830607711   111.98611057   252.33281926

------------------------------------------------------------------------------
                   ___                                                        
                  /   \      - P O W E R E D   B Y -                         
                 /     \                                                     
                 |  |  |   _    _      __       _____    __    __             
                 |  |  |  | |  | |    /  \     |  _  \  |  |  /  |          
                  \  \/   | |  | |   /    \    | | | |  |  | /  /          
                 / \  \   | |__| |  /  /\  \   | |_| |  |  |/  /          
                |  |  |   |  __  | /  /__\  \  |    /   |      \           
                |  |  |   | |  | | |   __   |  |    \   |  |\   \          
                \     /   | |  | | |  |  |  |  | |\  \  |  | \   \       
                 \___/    |_|  |_| |__|  |__|  |_| \__\ |__|  \__/        
                                                                              
                      - O R C A' S   B I G   F R I E N D -                    
                                      &                                       
                       - I N T E G R A L  F E E D E R -                       
                                                                              
 v1 FN, 2020, v2 2021                                                         
------------------------------------------------------------------------------


Reading SHARK input file OPT_Ar-1.SHARKINP.tmp ... ok
----------------------
SHARK INTEGRAL PACKAGE
----------------------

Number of atoms                             ...      6
Number of basis functions                   ...     51
Number of shells                            ...     27
Maximum angular momentum                    ...      2
Integral batch strategy                     ... SHARK/LIBINT Hybrid
RI-J (if used) integral strategy            ... SPLIT-RIJ (Revised 2003 algorithm where possible)
Printlevel                                  ...      1
Contraction scheme used                     ... SEGMENTED contraction
Coulomb Range Separation                    ... NOT USED
Exchange Range Separation                   ... NOT USED
Finite Nucleus Model                        ... NOT USED
Auxiliary Coulomb fitting basis             ... AVAILABLE
   # of basis functions in Aux-J            ...    180
   # of shells in Aux-J                     ...     60
   Maximum angular momentum in Aux-J        ...      4
Auxiliary J/K fitting basis                 ... NOT available
Auxiliary Correlation fitting basis         ... NOT available
Auxiliary 'external' fitting basis          ... NOT available
Integral threshold                          ...     2.500000e-11
Primitive cut-off                           ...     2.500000e-12
Primitive pair pre-selection threshold      ...     2.500000e-12

Calculating pre-screening integrals         ... done (  0.0 sec) Dimension = 27
Organizing shell pair data                  ... done (  0.0 sec)
Shell pair information
Total number of shell pairs                 ...       378
Shell pairs after pre-screening             ...       375
Total number of primitive shell pairs       ...      1374
Primitive shell pairs kept                  ...      1156
          la=0 lb=0:    168 shell pairs
          la=1 lb=0:    108 shell pairs
          la=1 lb=1:     21 shell pairs
          la=2 lb=0:     54 shell pairs
          la=2 lb=1:     18 shell pairs
          la=2 lb=2:      6 shell pairs

Calculating one electron integrals          ... done (  0.0 sec)
Calculating RI/J V-Matrix + Cholesky decomp.... done (  0.0 sec)
Calculating Nuclear repulsion               ... done (  0.0 sec) ENN=     56.584613944452 Eh

SHARK setup successfully completed in   0.2 seconds

Maximum memory used throughout the entire GTOINT-calculation: 9.1 MB

Diagonalization of the overlap matrix:
Smallest eigenvalue                        ... 9.789e-03
Time for diagonalization                   ...    0.001 sec
Threshold for overlap eigenvalues          ... 1.000e-08
Number of eigenvalues below threshold      ... 0
Time for construction of square roots      ...    0.000 sec
Total time needed                          ...    0.001 sec

-------------------
DFT GRID GENERATION
-------------------

General Integration Accuracy     IntAcc      ... 4.159
Radial Grid Type                 RadialGrid  ... OptM3 with GC (2021)
Angular Grid (max. ang.)         AngularGrid ... 3 (Lebedev-194)
Angular grid pruning method      GridPruning ... 4 (adaptive)
Weight generation scheme         WeightScheme... Becke
Basis function cutoff            BFCut       ... 1.0000e-11
Integration weight cutoff        WCut        ... 1.0000e-14
Angular grids for H and He will be reduced by one unit
Partially contracted basis set               ... off
Rotationally invariant grid construction     ... off

Total number of grid points                  ...    14349
Total number of batches                      ...      226
Average number of points per batch           ...       63
Average number of grid points per atom       ...     2392
Time for grid setup =    0.183 sec

--------------------
COSX GRID GENERATION
--------------------

GRIDX 1
-------
General Integration Accuracy     IntAcc      ... 3.816
Radial Grid Type                 RadialGrid  ... OptM3 with GC (2021)
Angular Grid (max. ang.)         AngularGrid ... 1 (Lebedev-50)
Angular grid pruning method      GridPruning ... 4 (adaptive)
Weight generation scheme         WeightScheme... Becke
Basis function cutoff            BFCut       ... 1.0000e-11
Integration weight cutoff        WCut        ... 1.0000e-14
Angular grids for H and He will be reduced by one unit
Partially contracted basis set               ... on
Rotationally invariant grid construction     ... off

Total number of grid points                  ...     3615
Total number of batches                      ...       60
Average number of points per batch           ...       60
Average number of grid points per atom       ...      602
UseSFitting                                  ... on

GRIDX 2
-------
General Integration Accuracy     IntAcc      ... 4.020
Radial Grid Type                 RadialGrid  ... OptM3 with GC (2021)
Angular Grid (max. ang.)         AngularGrid ... 2 (Lebedev-110)
Angular grid pruning method      GridPruning ... 4 (adaptive)
Weight generation scheme         WeightScheme... Becke
Basis function cutoff            BFCut       ... 1.0000e-11
Integration weight cutoff        WCut        ... 1.0000e-14
Angular grids for H and He will be reduced by one unit
Partially contracted basis set               ... on
Rotationally invariant grid construction     ... off

Total number of grid points                  ...     7964
Total number of batches                      ...      127
Average number of points per batch           ...       62
Average number of grid points per atom       ...     1327
UseSFitting                                  ... on

GRIDX 3
-------
General Integration Accuracy     IntAcc      ... 4.338
Radial Grid Type                 RadialGrid  ... OptM3 with GC (2021)
Angular Grid (max. ang.)         AngularGrid ... 3 (Lebedev-194)
Angular grid pruning method      GridPruning ... 4 (adaptive)
Weight generation scheme         WeightScheme... Becke
Basis function cutoff            BFCut       ... 1.0000e-11
Integration weight cutoff        WCut        ... 1.0000e-14
Angular grids for H and He will be reduced by one unit
Partially contracted basis set               ... on
Rotationally invariant grid construction     ... off

Total number of grid points                  ...    17615
Total number of batches                      ...      278
Average number of points per batch           ...       63
Average number of grid points per atom       ...     2936
UseSFitting                                  ... on

Time for X-Grid setup             =    0.286 sec

--------------
SCF ITERATIONS
--------------
ITER       Energy         Delta-E        Max-DP      RMS-DP      [F,P]     Damp
               ***  Starting incremental Fock matrix formation  ***
  0   -115.2509641152   0.000000000000 0.00647967  0.00049194  0.0122744 0.7000
                      *** Initiating the SOSCF procedure ***
                      *** Re-Reading the Fockian *** 
                      *** Removing any level shift *** 
ITER      Energy       Delta-E        Grad      Rot      Max-DP    RMS-DP
  1   -115.25170481  -0.0007406975  0.002781  0.002781  0.019016  0.001491
               *** Restarting incremental Fock matrix formation ***
  2   -115.25363140  -0.0019265864  0.002502  0.005289  0.005518  0.000584
  3   -115.25375936  -0.0001279584  0.001430  0.006958  0.003060  0.000307
  4   -115.25379090  -0.0000315431  0.001048  0.001441  0.002279  0.000139
  5   -115.25380211  -0.0000112064  0.000556  0.000699  0.000753  0.000067
  6   -115.25380684  -0.0000047290  0.000141  0.000832  0.000257  0.000025
  7   -115.25380716  -0.0000003208  0.000034  0.000423  0.000141  0.000014
  8   -115.25380720  -0.0000000472  0.000007  0.000010  0.000009  0.000001
                 **** Energy Check signals convergence ****
              ***Rediagonalizing the Fockian in SOSCF/NRSCF***

               *****************************************************
               *                     SUCCESS                       *
               *           SCF CONVERGED AFTER   9 CYCLES          *
               *****************************************************

Old exchange energy                            =     -6.743324147 Eh
New exchange energy                            =     -6.743319947 Eh
Exchange energy change after final integration =      0.000004201 Eh
Total energy after final integration           =   -115.253803004 Eh
Final COS-X integration done in                =     1.259 sec
Total Energy       :         -115.25380300 Eh           -3136.21542 eV
  Last Energy change         ...   -6.9912e-10  Tolerance :   1.0000e-08
  Last MAX-Density change    ...    5.5511e-16  Tolerance :   1.0000e-07
             **** THE GBW FILE WAS UPDATED (OPT_Ar-1.gbw) ****
             **** DENSITY OPT_Ar-1.scfp WAS UPDATED ****
             **** ENERGY FILE WAS UPDATED (OPT_Ar-1.en.tmp) ****
             **** THE GBW FILE WAS UPDATED (OPT_Ar-1.gbw) ****
             **** DENSITY OPT_Ar-1.scfp WAS UPDATED ****
Total SCF time: 0 days 0 hours 0 min 8 sec 

Maximum memory used throughout the entire SCF-calculation: 46.5 MB


-------------------------------------------------------------------------------
                          DFT DISPERSION CORRECTION                            
                                                                               
                              DFTD3 V3.1  Rev 1                                
                          USING Becke-Johnson damping                          
-------------------------------------------------------------------------------
-------------------------   ----------------
Dispersion correction           -0.001637902
-------------------------   ----------------

------------------   -----------------
gCP correction             0.006644024
------------------   -----------------

-------------------------   --------------------
FINAL SINGLE POINT ENERGY      -115.248796881778
-------------------------   --------------------

------------------------------------------------------------------------------
                         ORCA SCF GRADIENT CALCULATION
------------------------------------------------------------------------------

 ... reading COSX grid (gridx3)
Gradient of the Kohn-Sham DFT energy:
Kohn-Sham wavefunction type      ... RKS
Hartree-Fock exchange scaling    ...    0.420
Number of operators              ...    1
Number of atoms                  ...    6
Basis set dimensions             ...   51
Integral neglect threshold       ... 2.5e-11
Integral primitive cutoff        ... 2.5e-12
SHARK Integral package           ... ON

Nuc. rep. gradient       (SHARK) ... done (  0.0 sec)
HCore & Overlap gradient (SHARK) ... done (  0.0 sec)
RI-J gradient            (SHARK) ... done (  0.2 sec)
COSX-gradient                    ... done (  1.4 sec)
Exchange-correlation gradient    ... done
Dispersion correction            ... done
gCP correction                   ... done

------------------
CARTESIAN GRADIENT
------------------

   1   C   :   -0.077308990    0.124968265   -0.112649188
   2   C   :    0.126268673   -0.065564521    0.015442837
   3   C   :   -0.041395565   -0.091113911    0.102350894
   4   H   :   -0.048226290    0.023269381   -0.010275336
   5   H   :    0.028004607   -0.024098460    0.046941918
   6   H   :    0.012658441    0.032475671   -0.041905080

Difference to translation invariance:
           :    0.0000008763   -0.0000635757   -0.0000939552

Difference to rotation invariance:
           :    0.0003305304   -0.0012346704    0.0007287648

Norm of the cartesian gradient     ...    0.2911492668
RMS gradient                       ...    0.0686245403
MAX gradient                       ...    0.1262686732

-------
TIMINGS
-------

Total SCF gradient time            ...        2.388 sec

One electron gradient       ....       0.015 sec  (  0.6%)
RI-J Coulomb gradient       ....       0.245 sec  ( 10.3%)
COSX gradient               ....       1.400 sec  ( 58.6%)
XC gradient                 ....       0.394 sec  ( 16.5%)

Maximum memory used throughout the entire SCFGRAD-calculation: 35.9 MB
------------------------------------------------------------------------------
                         ORCA GEOMETRY RELAXATION STEP
------------------------------------------------------------------------------

Reading the OPT-File                    .... done
Getting information on internals        .... done
Copying old internal coords+grads       .... done
Making the new internal coordinates     .... (new redundants).... done
Validating the new internal coordinates .... (new redundants).... done
Calculating the B-matrix                .... done
Calculating the G,G- and P matrices     .... done
Transforming gradient to internals      .... done
Projecting the internal gradient        .... done
Number of atoms                         ....   6
Number of internal coordinates          ....  24
Current Energy                          ....  -115.248796882 Eh
Current gradient norm                   ....     0.291149267 Eh/bohr
Maximum allowed component of the step   ....  0.300
Current trust radius                    ....  0.300
Updating the Hessian (BFGS)             .... done
Forming the augmented Hessian           .... done
Diagonalizing the augmented Hessian     .... done
Last element of RFO vector              ....  0.784240417
Lowest eigenvalues of augmented Hessian:
 -0.113136939  0.043017780  0.066492993  0.068987417  0.178017779
Length of the computed step             ....  0.791156704
Warning: the length of the step is outside the trust region - taking restricted step instead
The input lambda is                     ....    -0.113137
   iter:   1  x=   -0.189722  g=    6.997806 f(x)=     0.535929
   iter:   2  x=   -0.280536  g=    2.395334 f(x)=     0.217530
   iter:   3  x=   -0.361494  g=    0.963569 f(x)=     0.078009
   iter:   4  x=   -0.401757  g=    0.514339 f(x)=     0.020709
   iter:   5  x=   -0.408340  g=    0.393064 f(x)=     0.002587
   iter:   6  x=   -0.408482  g=    0.376995 f(x)=     0.000053
   iter:   7  x=   -0.408482  g=    0.376659 f(x)=     0.000000
   iter:   8  x=   -0.408482  g=    0.376658 f(x)=     0.000000
   iter:   9  x=   -0.408482  g=    0.376658 f(x)=    -0.000000
The output lambda is                    ....    -0.408482 (9 iterations)
The final length of the internal step   ....  0.300000000
Converting the step to cartesian space:
 Initial RMS(Int)=    0.0612372436
Transforming coordinates:
 Iter   0:  RMS(Cart)=    0.0409245408 RMS(Int)=    0.0621718528
 Iter   1:  RMS(Cart)=    0.0029238730 RMS(Int)=    0.0024784595
 Iter   2:  RMS(Cart)=    0.0001116483 RMS(Int)=    0.0001359472
 Iter   3:  RMS(Cart)=    0.0000080161 RMS(Int)=    0.0000076981
 Iter   4:  RMS(Cart)=    0.0000004923 RMS(Int)=    0.0000004789
 Iter   5:  RMS(Cart)=    0.0000000215 RMS(Int)=    0.0000000262
done
Storing new coordinates                 .... done

                                .--------------------.
          ----------------------|Geometry convergence|-------------------------
          Item                value                   Tolerance       Converged
          ---------------------------------------------------------------------
          Energy change      -0.0462444676            0.0000050000      NO
          RMS gradient        0.0294660202            0.0001000000      NO
          MAX gradient        0.0484542704            0.0003000000      NO
          RMS step            0.0612372436            0.0020000000      NO
          MAX step            0.1029750560            0.0040000000      NO
          ........................................................
          Max(Bonds)      0.0398      Max(Angles)    5.90
          Max(Dihed)        5.32      Max(Improp)    0.00
          ---------------------------------------------------------------------

The optimization has not yet converged - more geometry cycles are needed


    ---------------------------------------------------------------------------
                         Redundant Internal Coordinates
                            (Angstroem and degrees)

        Definition                    Value    dE/dq     Step     New-Value
    ----------------------------------------------------------------------------
     1. B(C   1,C   0)                1.4804  0.039544 -0.0384    1.4420   
     2. B(C   2,C   1)                1.4794  0.042190 -0.0398    1.4396   
     3. B(C   2,C   0)                1.4804  0.039528 -0.0384    1.4420   
     4. B(H   3,C   1)                1.1043  0.006696 -0.0065    1.0978   
     5. B(H   4,C   0)                1.1077  0.004090 -0.0051    1.1026   
     6. B(H   5,C   2)                1.1043  0.006705 -0.0065    1.0978   
     7. A(C   1,C   0,H   4)          112.37 -0.035494    4.54    116.91   
     8. A(C   1,C   0,C   2)           59.96  0.001106   -0.06     59.90   
     9. A(C   2,C   0,H   4)          112.36 -0.035544    4.55    116.91   
    10. A(C   2,C   1,H   3)          111.97 -0.025142    3.27    115.24   
    11. A(C   0,C   1,H   3)          115.54 -0.048454    5.90    121.44   
    12. A(C   0,C   1,C   2)           60.02 -0.000558    0.03     60.05   
    13. A(C   0,C   2,C   1)           60.02 -0.000548    0.03     60.05   
    14. A(C   1,C   2,H   5)          111.99 -0.025185    3.28    115.27   
    15. A(C   0,C   2,H   5)          115.52 -0.048442    5.90    121.42   
    16. D(H   3,C   1,C   0,H   4)    154.56  0.031321   -3.98    150.58   
    17. D(H   3,C   1,C   0,C   2)   -101.71  0.006930   -0.94   -102.66   
    18. D(C   2,C   1,C   0,H   4)   -103.72  0.024392   -3.04   -106.76   
    19. D(H   5,C   2,C   0,H   4)   -154.52 -0.031289    3.98   -150.54   
    20. D(H   5,C   2,C   0,C   1)    101.74 -0.006983    0.95    102.70   
    21. D(C   0,C   2,C   1,H   3)    107.70 -0.045275    5.32    113.03   
    22. D(H   5,C   2,C   1,H   3)      0.04 -0.000032    0.01      0.04   
    23. D(H   5,C   2,C   1,C   0)   -107.67  0.045243   -5.32   -112.98   
    24. D(C   1,C   2,C   0,H   4)    103.73 -0.024306    3.03    106.76   
    ----------------------------------------------------------------------------

         *************************************************************
         *                GEOMETRY OPTIMIZATION CYCLE   3            *
         *************************************************************
---------------------------------
CARTESIAN COORDINATES (ANGSTROEM)
---------------------------------
  C     -4.934616   -4.839183   -7.168142
  C     -3.755711   -4.551092   -6.389328
  C     -5.021994   -4.743070   -5.731989
  H     -3.348420   -3.533713   -6.324332
  H     -5.006950   -5.849950   -7.602779
  H     -5.432109   -3.849583   -5.243511

----------------------------
CARTESIAN COORDINATES (A.U.)
----------------------------
  NO LB      ZA    FRAG     MASS         X           Y           Z
   0 C     6.0000    0    12.011   -9.325072   -9.144731  -13.545825
   1 C     6.0000    0    12.011   -7.097265   -8.600317  -12.074080
   2 C     6.0000    0    12.011   -9.490194   -8.963103  -10.831889
   3 H     1.0000    0     1.008   -6.327597   -6.677749  -11.951255
   4 H     1.0000    0     1.008   -9.461764  -11.054803  -14.367170
   5 H     1.0000    0     1.008  -10.265199   -7.274657   -9.908800

--------------------------------
INTERNAL COORDINATES (ANGSTROEM)
--------------------------------
 C      0   0   0     0.000000000000     0.00000000     0.00000000
 C      1   0   0     1.442000162748     0.00000000     0.00000000
 C      2   1   0     1.439591380329    60.05595893     0.00000000
 H      2   1   3     1.097802449014   121.36186716   257.26458924
 H      1   2   3     1.102629145800   116.72244087   253.13863892
 H      3   2   1     1.097781279879   115.04000261   246.83962488

---------------------------
INTERNAL COORDINATES (A.U.)
---------------------------
 C      0   0   0     0.000000000000     0.00000000     0.00000000
 C      1   0   0     2.724985392663     0.00000000     0.00000000
 C      2   1   0     2.720433453575    60.05595893     0.00000000
 H      2   1   3     2.074545977784   121.36186716   257.26458924
 H      1   2   3     2.083667112841   116.72244087   253.13863892
 H      3   2   1     2.074505973918   115.04000261   246.83962488

------------------------------------------------------------------------------
                   ___                                                        
                  /   \      - P O W E R E D   B Y -                         
                 /     \                                                     
                 |  |  |   _    _      __       _____    __    __             
                 |  |  |  | |  | |    /  \     |  _  \  |  |  /  |          
                  \  \/   | |  | |   /    \    | | | |  |  | /  /          
                 / \  \   | |__| |  /  /\  \   | |_| |  |  |/  /          
                |  |  |   |  __  | /  /__\  \  |    /   |      \           
                |  |  |   | |  | | |   __   |  |    \   |  |\   \          
                \     /   | |  | | |  |  |  |  | |\  \  |  | \   \       
                 \___/    |_|  |_| |__|  |__|  |_| \__\ |__|  \__/        
                                                                              
                      - O R C A' S   B I G   F R I E N D -                    
                                      &                                       
                       - I N T E G R A L  F E E D E R -                       
                                                                              
 v1 FN, 2020, v2 2021                                                         
------------------------------------------------------------------------------


Reading SHARK input file OPT_Ar-1.SHARKINP.tmp ... ok
----------------------
SHARK INTEGRAL PACKAGE
----------------------

Number of atoms                             ...      6
Number of basis functions                   ...     51
Number of shells                            ...     27
Maximum angular momentum                    ...      2
Integral batch strategy                     ... SHARK/LIBINT Hybrid
RI-J (if used) integral strategy            ... SPLIT-RIJ (Revised 2003 algorithm where possible)
Printlevel                                  ...      1
Contraction scheme used                     ... SEGMENTED contraction
Coulomb Range Separation                    ... NOT USED
Exchange Range Separation                   ... NOT USED
Finite Nucleus Model                        ... NOT USED
Auxiliary Coulomb fitting basis             ... AVAILABLE
   # of basis functions in Aux-J            ...    180
   # of shells in Aux-J                     ...     60
   Maximum angular momentum in Aux-J        ...      4
Auxiliary J/K fitting basis                 ... NOT available
Auxiliary Correlation fitting basis         ... NOT available
Auxiliary 'external' fitting basis          ... NOT available
Integral threshold                          ...     2.500000e-11
Primitive cut-off                           ...     2.500000e-12
Primitive pair pre-selection threshold      ...     2.500000e-12

Calculating pre-screening integrals         ... done (  0.0 sec) Dimension = 27
Organizing shell pair data                  ... done (  0.0 sec)
Shell pair information
Total number of shell pairs                 ...       378
Shell pairs after pre-screening             ...       375
Total number of primitive shell pairs       ...      1374
Primitive shell pairs kept                  ...      1155
          la=0 lb=0:    168 shell pairs
          la=1 lb=0:    108 shell pairs
          la=1 lb=1:     21 shell pairs
          la=2 lb=0:     54 shell pairs
          la=2 lb=1:     18 shell pairs
          la=2 lb=2:      6 shell pairs

Calculating one electron integrals          ... done (  0.0 sec)
Calculating RI/J V-Matrix + Cholesky decomp.... done (  0.0 sec)
Calculating Nuclear repulsion               ... done (  0.0 sec) ENN=     57.618344816386 Eh

SHARK setup successfully completed in   0.2 seconds

Maximum memory used throughout the entire GTOINT-calculation: 9.1 MB

Diagonalization of the overlap matrix:
Smallest eigenvalue                        ... 9.423e-03
Time for diagonalization                   ...    0.001 sec
[...]
 Energy Change          TolE            ....  1.000e-08 Eh
 1-El. energy change                    ....  1.000e-05 Eh
 Orbital Gradient       TolG            ....  1.000e-05
 Orbital Rotation angle TolX            ....  1.000e-05
 DIIS Error             TolErr          ....  5.000e-07


Diagonalization of the overlap matrix:
Smallest eigenvalue                        ... 2.998e-03
Time for diagonalization                   ...    0.001 sec
Threshold for overlap eigenvalues          ... 1.000e-08
Number of eigenvalues below threshold      ... 0
Time for construction of square roots      ...    0.001 sec
Total time needed                          ...    0.002 sec

---------------------
INITIAL GUESS: MOREAD
---------------------
Guess MOs are being read from file: OPT_Ar-1.gbw
Input Geometry matches current geometry (good)
Input basis set matches current basis set (good)
MOs were renormalized
MOs were reorthogonalized (Cholesky)
                      ------------------
                      INITIAL GUESS DONE (   0.0 sec)
                      ------------------
-------------------
DFT GRID GENERATION
-------------------

General Integration Accuracy     IntAcc      ... 4.159
Radial Grid Type                 RadialGrid  ... OptM3 with GC (2021)
Angular Grid (max. ang.)         AngularGrid ... 3 (Lebedev-194)
Angular grid pruning method      GridPruning ... 4 (adaptive)
Weight generation scheme         WeightScheme... Becke
Basis function cutoff            BFCut       ... 1.0000e-11
Integration weight cutoff        WCut        ... 1.0000e-14
Angular grids for H and He will be reduced by one unit
Partially contracted basis set               ... off
Rotationally invariant grid construction     ... off

Total number of grid points                  ...    14361
Total number of batches                      ...      227
Average number of points per batch           ...       63
Average number of grid points per atom       ...     2394
Time for grid setup =    0.109 sec

--------------------
COSX GRID GENERATION
--------------------

GRIDX 1
-------
General Integration Accuracy     IntAcc      ... 3.816
Radial Grid Type                 RadialGrid  ... OptM3 with GC (2021)
Angular Grid (max. ang.)         AngularGrid ... 1 (Lebedev-50)
Angular grid pruning method      GridPruning ... 4 (adaptive)
Weight generation scheme         WeightScheme... Becke
Basis function cutoff            BFCut       ... 1.0000e-11
Integration weight cutoff        WCut        ... 1.0000e-14
Angular grids for H and He will be reduced by one unit
Partially contracted basis set               ... on
Rotationally invariant grid construction     ... off

Total number of grid points                  ...     3619
Total number of batches                      ...       59
Average number of points per batch           ...       61
Average number of grid points per atom       ...      603
UseSFitting                                  ... on

GRIDX 2
-------
General Integration Accuracy     IntAcc      ... 4.020
Radial Grid Type                 RadialGrid  ... OptM3 with GC (2021)
Angular Grid (max. ang.)         AngularGrid ... 2 (Lebedev-110)
Angular grid pruning method      GridPruning ... 4 (adaptive)
Weight generation scheme         WeightScheme... Becke
Basis function cutoff            BFCut       ... 1.0000e-11
Integration weight cutoff        WCut        ... 1.0000e-14
Angular grids for H and He will be reduced by one unit
Partially contracted basis set               ... on
Rotationally invariant grid construction     ... off

Total number of grid points                  ...     7974
Total number of batches                      ...      127
Average number of points per batch           ...       62
Average number of grid points per atom       ...     1329
UseSFitting                                  ... on

GRIDX 3
-------
General Integration Accuracy     IntAcc      ... 4.338
Radial Grid Type                 RadialGrid  ... OptM3 with GC (2021)
Angular Grid (max. ang.)         AngularGrid ... 3 (Lebedev-194)
Angular grid pruning method      GridPruning ... 4 (adaptive)
Weight generation scheme         WeightScheme... Becke
Basis function cutoff            BFCut       ... 1.0000e-11
Integration weight cutoff        WCut        ... 1.0000e-14
Angular grids for H and He will be reduced by one unit
Partially contracted basis set               ... on
Rotationally invariant grid construction     ... off

Total number of grid points                  ...    17629
Total number of batches                      ...      278
Average number of points per batch           ...       63
Average number of grid points per atom       ...     2938
UseSFitting                                  ... on

Time for X-Grid setup             =    0.309 sec

--------------
SCF ITERATIONS
--------------
ITER       Energy         Delta-E        Max-DP      RMS-DP      [F,P]     Damp
               ***  Starting incremental Fock matrix formation  ***
                      *** Initiating the SOSCF procedure ***
                      *** Re-Reading the Fockian *** 
                      *** Removing any level shift *** 
ITER      Energy       Delta-E        Grad      Rot      Max-DP    RMS-DP
  0   -115.46453105 -115.4645310475  0.000129  0.000129  0.000174  0.000015
               *** Restarting incremental Fock matrix formation ***
  1   -115.46453132  -0.0000002690  0.000041  0.000053  0.000064  0.000006
  2   -115.46453134  -0.0000000269  0.000022  0.000044  0.000049  0.000003
                 **** Energy Check signals convergence ****
              ***Rediagonalizing the Fockian in SOSCF/NRSCF***

               *****************************************************
               *                     SUCCESS                       *
               *           SCF CONVERGED AFTER   3 CYCLES          *
               *****************************************************

Old exchange energy                            =     -6.843850870 Eh
New exchange energy                            =     -6.843826813 Eh
Exchange energy change after final integration =      0.000024058 Eh
Total energy after final integration           =   -115.464507287 Eh
Final COS-X integration done in                =     0.675 sec

----------------
TOTAL SCF ENERGY
----------------

Total Energy       :         -115.46450729 Eh           -3141.94898 eV

Components:
Nuclear Repulsion  :           59.57533214 Eh            1621.12720 eV
Electronic Energy  :         -175.03983942 Eh           -4763.07618 eV
One Electron Energy:         -265.99774645 Eh           -7238.16666 eV
Two Electron Energy:           90.95790703 Eh            2475.09048 eV
Max COSX asymmetry :            0.00000493 Eh               0.00013 eV

Virial components:
Potential Energy   :         -230.09183285 Eh           -6261.11708 eV
Kinetic Energy     :          114.62732556 Eh            3119.16810 eV
Virial Ratio       :            2.00730351


DFT components:
N(Alpha)           :        9.999989764123 electrons
N(Beta)            :        9.999989764123 electrons
N(Total)           :       19.999979528247 electrons
E(X)               :       -9.078875384586 Eh       
E(C)               :       -0.845135850079 Eh       
E(XC)              :       -9.924011234665 Eh       
DFET-embed. en.    :        0.000000000000 Eh       

---------------
SCF CONVERGENCE
---------------

  Last Energy change         ...   -1.1401e-09  Tolerance :   1.0000e-08
  Last MAX-Density change    ...    5.5685e-16  Tolerance :   1.0000e-07
  Last RMS-Density change    ...    3.5246e-17  Tolerance :   5.0000e-09
  Last Orbital Gradient      ...    1.5596e-05  Tolerance :   1.0000e-05
  Last Orbital Rotation      ...    1.5478e-05  Tolerance :   1.0000e-05

             **** THE GBW FILE WAS UPDATED (OPT_Ar-1.gbw) ****
             **** DENSITY OPT_Ar-1.scfp WAS UPDATED ****
             **** ENERGY FILE WAS UPDATED (OPT_Ar-1.en.tmp) ****
             **** THE GBW FILE WAS UPDATED (OPT_Ar-1.gbw) ****
             **** DENSITY OPT_Ar-1.scfp WAS UPDATED ****
----------------
ORBITAL ENERGIES
----------------

  NO   OCC          E(Eh)            E(eV) 
   0   2.0000     -10.785127      -293.4782 
   1   2.0000     -10.783958      -293.4464 
   2   2.0000     -10.783937      -293.4458 
   3   2.0000      -1.329875       -36.1877 
   4   2.0000      -0.934415       -25.4267 
   5   2.0000      -0.934363       -25.4253 
   6   2.0000      -0.869524       -23.6609 
   7   2.0000      -0.715555       -19.4713 
   8   2.0000      -0.697418       -18.9777 
   9   2.0000      -0.697288       -18.9742 
  10   0.0000      -0.259734        -7.0677 
  11   0.0000      -0.259717        -7.0672 
  12   0.0000      -0.064743        -1.7617 
  13   0.0000      -0.057663        -1.5691 
  14   0.0000      -0.057545        -1.5659 
  15   0.0000      -0.042046        -1.1441 
  16   0.0000       0.086761         2.3609 
  17   0.0000       0.086941         2.3658 
  18   0.0000       0.234597         6.3837 
  19   0.0000       0.270537         7.3617 
  20   0.0000       0.327190         8.9033 
  21   0.0000       0.327360         8.9079 
  22   0.0000       0.352488         9.5917 
  23   0.0000       0.352519         9.5925 
  24   0.0000       0.378438        10.2978 
  25   0.0000       0.463331        12.6079 
  26   0.0000       0.555451        15.1146 
  27   0.0000       0.555823        15.1247 
  28   0.0000       0.786303        21.3964 
  29   0.0000       0.853858        23.2346 
  30   0.0000       0.854140        23.2423 
  31   0.0000       0.932409        25.3721 
  32   0.0000       0.932622        25.3779 
  33   0.0000       1.079272        29.3685 
  34   0.0000       1.244320        33.8597 
  35   0.0000       1.244348        33.8604 
  36   0.0000       1.288509        35.0621 
  37   0.0000       1.649574        44.8872 
  38   0.0000       1.649632        44.8888 
  39   0.0000       1.935548        52.6690 
  40   0.0000       2.021930        55.0195 
  41   0.0000       2.064254        56.1712 
  42   0.0000       2.064447        56.1765 
  43   0.0000       2.123152        57.7739 
  44   0.0000       2.123194        57.7750 
  45   0.0000       2.629207        71.5444 
  46   0.0000       2.690540        73.2133 
  47   0.0000       2.690847        73.2217 
  48   0.0000      12.861196       349.9709 
  49   0.0000      13.826077       376.2267 
  50   0.0000      13.826397       376.2354 

                    ********************************
                    * MULLIKEN POPULATION ANALYSIS *
                    ********************************

-----------------------
MULLIKEN ATOMIC CHARGES
-----------------------
   0 C :   -0.005360
   1 C :   -0.005476
   2 C :   -0.005457
   3 H :    0.338740
   4 H :    0.338786
   5 H :    0.338766
Sum of atomic charges:    1.0000000

--------------------------------
MULLIKEN REDUCED ORBITAL CHARGES
--------------------------------
  0 C s       :     3.370910  s :     3.370910
      pz      :     0.857868  p :     2.582579
      px      :     0.935898
      py      :     0.788812
      dz2     :     0.012212  d :     0.051871
      dxz     :     0.010584
      dyz     :     0.011465
      dx2y2   :     0.009930
      dxy     :     0.007679
  1 C s       :     3.371040  s :     3.371040
      pz      :     0.885446  p :     2.582550
      px      :     0.892116
      py      :     0.804988
      dz2     :     0.006193  d :     0.051886
      dxz     :     0.012435
      dyz     :     0.005428
      dx2y2   :     0.014308
      dxy     :     0.013521
  2 C s       :     3.371070  s :     3.371070
      pz      :     0.852709  p :     2.582500
      px      :     0.915636
      py      :     0.814155
      dz2     :     0.013424  d :     0.051887
      dxz     :     0.013594
      dyz     :     0.008777
      dx2y2   :     0.006641
      dxy     :     0.009451
  3 H s       :     0.661260  s :     0.661260
  4 H s       :     0.661214  s :     0.661214
  5 H s       :     0.661234  s :     0.661234


                     *******************************
                     * LOEWDIN POPULATION ANALYSIS *
                     *******************************

----------------------
LOEWDIN ATOMIC CHARGES
----------------------
   0 C :    0.113222
   1 C :    0.113146
   2 C :    0.113192
   3 H :    0.220145
   4 H :    0.220141
   5 H :    0.220154

-------------------------------
LOEWDIN REDUCED ORBITAL CHARGES
-------------------------------
  0 C s       :     2.930538  s :     2.930538
      pz      :     0.955756  p :     2.851758
      px      :     1.032461
      py      :     0.863540
      dz2     :     0.021518  d :     0.104482
      dxz     :     0.021250
      dyz     :     0.026846
      dx2y2   :     0.017772
      dxy     :     0.017096
  1 C s       :     2.930529  s :     2.930529
      pz      :     0.960332  p :     2.851814
      px      :     1.024776
      py      :     0.866705
      dz2     :     0.014070  d :     0.104511
      dxz     :     0.024610
      dyz     :     0.010856
      dx2y2   :     0.026473
      dxy     :     0.028501
  2 C s       :     2.930544  s :     2.930544
      pz      :     0.954574  p :     2.851756
      px      :     1.028997
      py      :     0.868185
      dz2     :     0.023446  d :     0.104509
      dxz     :     0.031428
      dyz     :     0.017669
      dx2y2   :     0.014768
      dxy     :     0.017198
  3 H s       :     0.779855  s :     0.779855
  4 H s       :     0.779859  s :     0.779859
  5 H s       :     0.779846  s :     0.779846


                      *****************************
                      * MAYER POPULATION ANALYSIS *
                      *****************************

  NA   - Mulliken gross atomic population
  ZA   - Total nuclear charge
  QA   - Mulliken gross atomic charge
  VA   - Mayer's total valence
  BVA  - Mayer's bonded valence
  FA   - Mayer's free valence

  ATOM       NA         ZA         QA         VA         BVA        FA
  0 C      6.0054     6.0000    -0.0054     3.5011     3.5011    -0.0000
  1 C      6.0055     6.0000    -0.0055     3.5013     3.5013    -0.0000
  2 C      6.0055     6.0000    -0.0055     3.5013     3.5013     0.0000
  3 H      0.6613     1.0000     0.3387     0.8771     0.8771    -0.0000
  4 H      0.6612     1.0000     0.3388     0.8771     0.8771    -0.0000
  5 H      0.6612     1.0000     0.3388     0.8771     0.8771    -0.0000

  Mayer bond orders larger than 0.100000
B(  0-C ,  1-C ) :   1.3127 B(  0-C ,  2-C ) :   1.3128 B(  0-C ,  4-H ) :   0.8726 
B(  1-C ,  2-C ) :   1.3129 B(  1-C ,  3-H ) :   0.8726 B(  2-C ,  5-H ) :   0.8726 


-------
TIMINGS
-------

Total SCF time: 0 days 0 hours 0 min 3 sec 

Total time                  ....       3.093 sec
Sum of individual times     ....       2.990 sec  ( 96.7%)

Fock matrix formation       ....       2.567 sec  ( 83.0%)
  Split-RI-J                ....       0.242 sec  (  9.4% of F)
  Chain of spheres X        ....       1.992 sec  ( 77.6% of F)
  XC integration            ....       0.339 sec  ( 13.2% of F)
    Basis function eval.    ....       0.125 sec  ( 36.8% of XC)
    Density eval.           ....       0.066 sec  ( 19.4% of XC)
    XC-Functional eval.     ....       0.076 sec  ( 22.4% of XC)
    XC-Potential eval.      ....       0.044 sec  ( 13.0% of XC)
Diagonalization             ....       0.001 sec  (  0.0%)
Density matrix formation    ....       0.000 sec  (  0.0%)
Population analysis         ....       0.001 sec  (  0.0%)
Initial guess               ....       0.002 sec  (  0.1%)
Orbital Transformation      ....       0.000 sec  (  0.0%)
Orbital Orthonormalization  ....       0.000 sec  (  0.0%)
DIIS solution               ....       0.000 sec  (  0.0%)
SOSCF solution              ....       0.001 sec  (  0.0%)
Grid generation             ....       0.417 sec  ( 13.5%)

Maximum memory used throughout the entire SCF-calculation: 46.5 MB


-------------------------------------------------------------------------------
                          DFT DISPERSION CORRECTION                            
                                                                               
                              DFTD3 V3.1  Rev 1                                
                          USING Becke-Johnson damping                          
-------------------------------------------------------------------------------
The PBEh-3c composite method is recognized
Using three-body term ABC
Active option DFTDOPT                   ...         4   

molecular C6(AA) [au] = 419.068360 


            DFT-D V3
 parameters
 s6 scaling factor         :     1.0000 
 a1 scaling factor         :     0.4860 
 s8 scaling factor         :     0.0000 
 a2 scaling factor         :     4.5000 
 Damping factor alpha9(ATM):    16.0000 
 ad hoc parameters k1-k3   :    16.0000     1.3333    -4.0000 

 Edisp/kcal,au: -0.998258485759  -0.001590825988 
 E6   /kcal   :  -0.998573542 
 E8   /kcal   :  -0.000000000 
 E6(ABC)      :   0.000315057 
 % E8         :   0.000000000 
 % E6(ABC)    :  -0.031560624 

-------------------------   ----------------
Dispersion correction           -0.001590826
-------------------------   ----------------

------------------   -----------------
gCP correction             0.004766766
------------------   -----------------

-------------------------   --------------------
FINAL SINGLE POINT ENERGY      -115.461331346855
-------------------------   --------------------

                                *** OPTIMIZATION RUN DONE ***

                            ***************************************
                            *     ORCA property calculations      *
                            ***************************************

                                    ---------------------
                                    Active property flags
                                    ---------------------
   (+) Dipole Moment


------------------------------------------------------------------------------
                       ORCA ELECTRIC PROPERTIES CALCULATION
------------------------------------------------------------------------------

Dipole Moment Calculation                       ... on
Quadrupole Moment Calculation                   ... off
Polarizability Calculation                      ... off
GBWName                                         ... OPT_Ar-1.gbw
Electron density                                ... OPT_Ar-1.scfp
The origin for moment calculation is the CENTER OF MASS  = (-8.660884, -8.619513 -12.112515)

-------------
DIPOLE MOMENT
-------------
                                X             Y             Z
Electronic contribution:      0.00053      -0.00070       0.00124
Nuclear contribution   :     -0.00097       0.00093      -0.00213
                        -----------------------------------------
Total Dipole Moment    :     -0.00043       0.00024      -0.00089
                        -----------------------------------------
Magnitude (a.u.)       :      0.00101
Magnitude (Debye)      :      0.00258



--------------------
Rotational spectrum 
--------------------
 
Rotational constants in cm-1:     1.035902     1.035629     0.517883 
Rotational constants in MHz : 31055.568696 31047.377781 15525.739263 

 Dipole components along the rotational axes: 
x,y,z [a.u.] :     0.000193     0.000527    -0.000845 
x,y,z [Debye]:     0.000490     0.001339    -0.002147 

 

Timings for individual modules:

Sum of individual times         ...      218.980 sec (=   3.650 min)
GTO integral calculation        ...        5.325 sec (=   0.089 min)   2.4 %
SCF iterations                  ...      161.999 sec (=   2.700 min)  74.0 %
SCF Gradient evaluation         ...       50.745 sec (=   0.846 min)  23.2 %
Geometry relaxation             ...        0.911 sec (=   0.015 min)   0.4 %
                             ****ORCA TERMINATED NORMALLY****
TOTAL RUN TIME: 0 days 0 hours 3 minutes 43 seconds 11 msec
