      -----------------------------------------------------------      
     |                   =====================                   |     
     |                           x T B                           |     
     |                   =====================                   |     
     |                         S. Grimme                         |     
     |          Mulliken Center for Theoretical Chemistry        |     
     |                    University of Bonn                     |     
      -----------------------------------------------------------      

   * xtb version 6.5.1 (579679a) compiled by 'ehlert@majestix' on 2022-07-11

   xtb is free software: you can redistribute it and/or modify it under
   the terms of the GNU Lesser General Public License as published by
   the Free Software Foundation, either version 3 of the License, or
   (at your option) any later version.
   
   xtb is distributed in the hope that it will be useful,
   but WITHOUT ANY WARRANTY; without even the implied warranty of
   MERCHANTABILITY or FITNESS FOR A PARTICULAR PURPOSE.  See the
   GNU Lesser General Public License for more details.
   
   Cite this work as:
   * C. Bannwarth, E. Caldeweyher, S. Ehlert, A. Hansen, P. Pracht,
     J. Seibert, S. Spicher, S. Grimme, WIREs Comput. Mol. Sci., 2020, 11,
     e01493. DOI: 10.1002/wcms.1493
   
   for GFN2-xTB:
   * C. Bannwarth, S. Ehlert and S. Grimme., J. Chem. Theory Comput., 2019,
     15, 1652-1671. DOI: 10.1021/acs.jctc.8b01176
   for GFN1-xTB:
   * S. Grimme, C. Bannwarth, P. Shushkov, J. Chem. Theory Comput., 2017,
     13, 1989-2009. DOI: 10.1021/acs.jctc.7b00118
   for GFN0-xTB:
   * P. Pracht, E. Caldeweyher, S. Ehlert, S. Grimme, ChemRxiv, 2019, preprint.
     DOI: 10.26434/chemrxiv.8326202.v1
   for GFN-FF:
   * S. Spicher and S. Grimme, Angew. Chem. Int. Ed., 2020, 59, 15665-15673.
     DOI: 10.1002/anie.202004239
   
   for ALPB and GBSA implicit solvation:
   * S. Ehlert, M. Stahn, S. Spicher, S. Grimme, J. Chem. Theory Comput.,
     2021, 17, 4250-4261. DOI: 10.1021/acs.jctc.1c00471
   
   for DFT-D4:
   * E. Caldeweyher, C. Bannwarth and S. Grimme, J. Chem. Phys., 2017,
     147, 034112. DOI: 10.1063/1.4993215
   * E. Caldeweyher, S. Ehlert, A. Hansen, H. Neugebauer, S. Spicher,
     C. Bannwarth and S. Grimme, J. Chem. Phys., 2019, 150, 154122.
     DOI: 10.1063/1.5090222
   * E. Caldeweyher, J.-M. Mewes, S. Ehlert and S. Grimme, Phys. Chem. Chem. Phys.
     2020, 22, 8499-8512. DOI: 10.1039/D0CP00502A
   
   for sTDA-xTB:
   * S. Grimme and C. Bannwarth, J. Chem. Phys., 2016, 145, 054103.
     DOI: 10.1063/1.4959605
   
   in the mass-spec context:
   * V. Asgeirsson, C. Bauer and S. Grimme, Chem. Sci., 2017, 8, 4879.
     DOI: 10.1039/c7sc00601b
   * J. Koopman and S. Grimme, ACS Omega 2019, 4, 12, 15120-15133.
     DOI: 10.1021/acsomega.9b02011
   
   for metadynamics refer to:
   * S. Grimme, J. Chem. Theory Comput., 2019, 155, 2847-2862
     DOI: 10.1021/acs.jctc.9b00143
   
   for SPH calculations refer to:
   * S. Spicher and S. Grimme, J. Chem. Theory Comput., 2021, 17, 1701-1714
     DOI: 10.1021/acs.jctc.0c01306
   
   with help from (in alphabetical order)
   P. Atkinson, C. Bannwarth, F. Bohle, G. Brandenburg, E. Caldeweyher
   M. Checinski, S. Dohm, S. Ehlert, S. Ehrlich, I. Gerasimov, C. Hölzer
   A. Katbashev, J. Koopman, C. Lavigne, S. Lehtola, F. März, M. Müller,
   F. Musil, H. Neugebauer, J. Pisarek, C. Plett, P. Pracht, F. Pultar,
   J. Seibert, P. Shushkov, S. Spicher, M. Stahn, M. Steiner, T. Strunk,
   J. Stückrath, T. Rose, and J. Unsleber
   
 * started run on 2023/06/22 at 18:13:41.380     

           -------------------------------------------------
          |                Calculation Setup                |
           -------------------------------------------------

          program call               : xtb end.xyz --opt
          hostname                   : c04
          coordinate file            : end.xyz
          omp threads                :                     2

   ID    Z sym.   atoms
    1    6 C      1-3, 5, 6
    2    8 O      4
    3    1 H      7-14

           -------------------------------------------------
          |                 G F N 2 - x T B                 |
           -------------------------------------------------

        Reference                      10.1021/acs.jctc.8b01176
      * Hamiltonian:
        H0-scaling (s, p, d)           1.850000    2.230000    2.230000
        zeta-weighting                 0.500000
      * Dispersion:
        s8                             2.700000
        a1                             0.520000
        a2                             5.000000
        s9                             5.000000
      * Repulsion:
        kExp                           1.500000    1.000000
        rExp                           1.000000
      * Coulomb:
        alpha                          2.000000
        third order                    shell-resolved
        anisotropic                    true
        a3                             3.000000
        a5                             4.000000
        cn-shift                       1.200000
        cn-exp                         4.000000
        max-rad                        5.000000


          ...................................................
          :                      SETUP                      :
          :.................................................:
          :  # basis functions                  32          :
          :  # atomic orbitals                  32          :
          :  # shells                           20          :
          :  # electrons                        34          :
          :  max. iterations                   250          :
          :  Hamiltonian                  GFN2-xTB          :
          :  restarted?                      false          :
          :  GBSA solvation                  false          :
          :  PC potential                    false          :
          :  electronic temp.          300.0000000     K    :
          :  accuracy                    1.0000000          :
          :  -> integral cutoff          0.2500000E+02      :
          :  -> integral neglect         0.1000000E-07      :
          :  -> SCF convergence          0.1000000E-05 Eh   :
          :  -> wf. convergence          0.1000000E-03 e    :
          :  Broyden damping             0.4000000          :
          ...................................................

 iter      E             dE          RMSdq      gap      omega  full diag
   1    -18.9716167 -0.189716E+02  0.448E+00    4.28       0.0  T
   2    -19.0173874 -0.457707E-01  0.243E+00    3.26       1.0  T
   3    -19.0207757 -0.338821E-02  0.162E+00    3.71       1.0  T
   4    -19.0279251 -0.714942E-02  0.502E-01    3.36       1.0  T
   5    -19.0297864 -0.186135E-02  0.166E-01    3.32       1.0  T
   6    -19.0300768 -0.290346E-03  0.594E-02    3.37       1.0  T
   7    -19.0300873 -0.105438E-04  0.213E-02    3.37       1.3  T
   8    -19.0300878 -0.447084E-06  0.550E-03    3.37       4.9  T
   9    -19.0300878 -0.769698E-07  0.179E-03    3.37      14.9  T
  10    -19.0300878 -0.612070E-08  0.607E-04    3.37      44.0  T
  11    -19.0300878 -0.307056E-08  0.179E-04    3.37     149.0  T

   *** convergence criteria satisfied after 11 iterations ***

         #    Occupation            Energy/Eh            Energy/eV
      -------------------------------------------------------------
         1        2.0000           -0.7137133             -19.4211
       ...           ...                  ...                  ...
        11        2.0000           -0.4923300             -13.3970
        12        2.0000           -0.4852048             -13.2031
        13        2.0000           -0.4626765             -12.5901
        14        2.0000           -0.4475451             -12.1783
        15        2.0000           -0.4279504             -11.6451
        16        2.0000           -0.4074728             -11.0879
        17        2.0000           -0.3964112             -10.7869 (HOMO)
        18                         -0.2725454              -7.4163 (LUMO)
        19                         -0.2073520              -5.6423
        20                          0.0570661               1.5528
        21                          0.0688896               1.8746
        22                          0.1038979               2.8272
       ...                                ...                  ...
        32                          0.5663330              15.4107
      -------------------------------------------------------------
                  HL-Gap            0.1238658 Eh            3.3706 eV
             Fermi-level           -0.3344783 Eh           -9.1016 eV

 SCC (total)                   0 d,  0 h,  0 min,  0.006 sec
 SCC setup                      ...        0 min,  0.000 sec (  2.812%)
 Dispersion                     ...        0 min,  0.000 sec (  1.415%)
 classical contributions        ...        0 min,  0.000 sec (  0.304%)
 integral evaluation            ...        0 min,  0.001 sec (  9.759%)
 iterations                     ...        0 min,  0.003 sec ( 55.437%)
 molecular gradient             ...        0 min,  0.002 sec ( 27.752%)
 printout                       ...        0 min,  0.000 sec (  1.790%)

         :::::::::::::::::::::::::::::::::::::::::::::::::::::
         ::                     SUMMARY                     ::
         :::::::::::::::::::::::::::::::::::::::::::::::::::::
         :: total energy             -18.778294456239 Eh    ::
         :: gradient norm              0.071449780811 Eh/a0 ::
         :: HOMO-LUMO gap              3.370560526428 eV    ::
         ::.................................................::
         :: SCC energy               -19.030087841080 Eh    ::
         :: -> isotropic ES            0.023363411566 Eh    ::
         :: -> anisotropic ES          0.003235155005 Eh    ::
         :: -> anisotropic XC          0.011466972780 Eh    ::
         :: -> dispersion             -0.008172717753 Eh    ::
         :: repulsion energy           0.251777592200 Eh    ::
         :: add. restraining           0.000000000000 Eh    ::
         :: total charge               0.000000000000 e     ::
         :::::::::::::::::::::::::::::::::::::::::::::::::::::

      ----------------------------------------------------------- 
     |                   =====================                   |
     |                        A N C O P T                        |
     |                   =====================                   |
     |               Approximate Normal Coordinate               |
     |                Rational Function Optimizer                |
      ----------------------------------------------------------- 

          ...................................................
          :                      SETUP                      :
          :.................................................:
          :   optimization level            normal          :
          :   max. optcycles                   200          :
          :   ANC micro-cycles                  20          :
          :   degrees of freedom                36          :
          :.................................................:
          :   RF solver                   davidson          :
          :   write xtbopt.log                true          :
          :   linear?                        false          :
          :   energy convergence         0.5000000E-05 Eh   :
          :   grad. convergence          0.1000000E-02 Eh/α :
          :   maximium RF displ.         1.0000000          :
          :   Hlow (freq-cutoff)         0.1000000E-01      :
          :   Hmax (freq-cutoff)         5.0000000          :
          :   S6 in model hess.         20.0000000          :
          ...................................................

generating ANC from model Hessian ...
Using Lindh-Hessian (1995)
 Shifting diagonal of input Hessian by   7.216495479140938E-003
 Lowest  eigenvalues of input Hessian
    0.000000    0.000000    0.000000    0.000000    0.000000    0.000000
    0.010000    0.011318    0.013301    0.018463    0.021949    0.027524
    0.030153    0.047720    0.053266    0.057803    0.059758    0.065670
 Highest eigenvalues
    1.117394    1.169402    1.377982    1.472653    1.854788    2.102870
 

........................................................................
.............................. CYCLE    1 ..............................
........................................................................
   1    -19.0300878 -0.190301E+02  0.110E-04    3.37       0.0  T
   2    -19.0300878 -0.794316E-10  0.570E-05    3.37     468.7  T
   3    -19.0300878 -0.387530E-10  0.201E-05    3.37    1330.1  T
     SCC iter.                  ...        0 min,  0.001 sec
     gradient                   ...        0 min,  0.001 sec
 * total energy  :   -18.7782945 Eh     change       -0.2651070E-09 Eh
   gradient norm :     0.0714495 Eh/α   predicted     0.0000000E+00 (-100.00%)
   displ. norm   :     0.2450498 α      lambda       -0.7074940E-02
   maximum displ.:     0.1615266 α      in ANC's #4, #19, #20, ...

........................................................................
.............................. CYCLE    2 ..............................
........................................................................
   1    -19.0488505 -0.190489E+02  0.344E-01    3.54       0.0  T
   2    -19.0489088 -0.583632E-04  0.200E-01    3.52       1.0  T
   3    -19.0488874  0.214200E-04  0.656E-02    3.51       1.0  T
   4    -19.0489102 -0.227591E-04  0.244E-02    3.51       1.1  T
   5    -19.0489166 -0.647888E-05  0.625E-03    3.51       4.3  T
   6    -19.0489167 -0.857457E-07  0.201E-03    3.52      13.3  T
   7    -19.0489167 -0.178480E-08  0.806E-04    3.52      33.1  T
   8    -19.0489167 -0.389818E-08  0.265E-04    3.52     100.9  T
     SCC iter.                  ...        0 min,  0.002 sec
     gradient                   ...        0 min,  0.002 sec
 * total energy  :   -18.7825270 Eh     change       -0.4232506E-02 Eh
   gradient norm :     0.0275064 Eh/α   predicted    -0.3749896E-02 ( -11.40%)
   displ. norm   :     0.2844306 α      lambda       -0.3161807E-02
   maximum displ.:     0.1404878 α      in ANC's #4, #1, #6, ...

........................................................................
.............................. CYCLE    3 ..............................
........................................................................
   1    -19.0604847 -0.190605E+02  0.336E-01    3.62       0.0  T
   2    -19.0605239 -0.392268E-04  0.196E-01    3.60       1.0  T
   3    -19.0605134  0.104705E-04  0.462E-02    3.60       1.0  T
   4    -19.0605251 -0.117373E-04  0.172E-02    3.60       1.6  T
   5    -19.0605282 -0.300445E-05  0.510E-03    3.60       5.2  T
   6    -19.0605282 -0.880063E-07  0.179E-03    3.60      15.0  T
   7    -19.0605282 -0.862002E-08  0.879E-04    3.60      30.4  T
   8    -19.0605283 -0.229500E-08  0.146E-04    3.60     182.6  T
     SCC iter.                  ...        0 min,  0.002 sec
     gradient                   ...        0 min,  0.002 sec
 * total energy  :   -18.7837511 Eh     change       -0.1224173E-02 Eh
   gradient norm :     0.0153831 Eh/α   predicted    -0.1708799E-02 (  39.59%)
   displ. norm   :     0.2797856 α      lambda       -0.1622001E-02
   maximum displ.:     0.2287716 α      in ANC's #4, #3, #1, ...

........................................................................
.............................. CYCLE    4 ..............................
........................................................................
   1    -19.0586886 -0.190587E+02  0.329E-01    3.63       0.0  T
   2    -19.0586951 -0.647639E-05  0.196E-01    3.63       1.0  T
   3    -19.0586898  0.530678E-05  0.262E-02    3.63       1.0  T
   4    -19.0586966 -0.687950E-05  0.889E-03    3.63       3.0  T
   5    -19.0586971 -0.490979E-06  0.363E-03    3.63       7.4  T
   6    -19.0586972 -0.259580E-07  0.159E-03    3.63      16.8  T
   7    -19.0586972 -0.335429E-08  0.599E-04    3.63      44.6  T
   8    -19.0586972 -0.167651E-08  0.209E-04    3.63     128.2  T
     SCC iter.                  ...        0 min,  0.002 sec
     gradient                   ...        0 min,  0.001 sec
 * total energy  :   -18.7848807 Eh     change       -0.1129553E-02 Eh
   gradient norm :     0.0184634 Eh/α   predicted    -0.8744809E-03 ( -22.58%)
   displ. norm   :     0.4088847 α      lambda       -0.1556145E-02
   maximum displ.:     0.3025114 α      in ANC's #4, #3, #1, ...

........................................................................
.............................. CYCLE    5 ..............................
........................................................................
   1    -19.0508965 -0.190509E+02  0.443E-01    3.62       0.0  T
   2    -19.0509037 -0.712385E-05  0.262E-01    3.62       1.0  T
   3    -19.0508311  0.725989E-04  0.842E-02    3.62       1.0  T
   4    -19.0509117 -0.806595E-04  0.639E-03    3.62       4.2  T
   5    -19.0509118 -0.111223E-06  0.361E-03    3.62       7.4  T
   6    -19.0509119 -0.675178E-08  0.120E-03    3.62      22.2  T
   7    -19.0509119 -0.424993E-08  0.492E-04    3.62      54.3  T
   8    -19.0509119 -0.102010E-08  0.209E-04    3.62     127.9  T
     SCC iter.                  ...        0 min,  0.002 sec
     gradient                   ...        0 min,  0.001 sec
 * total energy  :   -18.7857207 Eh     change       -0.8400568E-03 Eh
   gradient norm :     0.0208667 Eh/α   predicted    -0.9081560E-03 (   8.11%)
   displ. norm   :     0.2531274 α      lambda       -0.1077198E-02
   maximum displ.:     0.1966708 α      in ANC's #4, #6, #2, ...

........................................................................
.............................. CYCLE    6 ..............................
........................................................................
   1    -19.0509526 -0.190510E+02  0.245E-01    3.62       0.0  T
   2    -19.0509562 -0.368678E-05  0.145E-01    3.63       1.0  T
   3    -19.0509465  0.973463E-05  0.313E-02    3.64       1.0  T
   4    -19.0509577 -0.111721E-04  0.587E-03    3.63       4.6  T
   5    -19.0509579 -0.219420E-06  0.253E-03    3.63      10.6  T
   6    -19.0509579 -0.689086E-08  0.110E-03    3.63      24.3  T
   7    -19.0509579 -0.452224E-08  0.397E-04    3.63      67.3  T
   8    -19.0509579 -0.349690E-09  0.141E-04    3.63     189.4  T
     SCC iter.                  ...        0 min,  0.002 sec
     gradient                   ...        0 min,  0.002 sec
 * total energy  :   -18.7864079 Eh     change       -0.6871976E-03 Eh
   gradient norm :     0.0180927 Eh/α   predicted    -0.5731092E-03 ( -16.60%)
   displ. norm   :     0.1952586 α      lambda       -0.1300555E-02
   maximum displ.:     0.1202465 α      in ANC's #4, #6, #24, ...

........................................................................
.............................. CYCLE    7 ..............................
........................................................................
   1    -19.0589781 -0.190590E+02  0.181E-01    3.63       0.0  T
   2    -19.0589865 -0.832642E-05  0.107E-01    3.63       1.0  T
   3    -19.0589634  0.230782E-04  0.543E-02    3.64       1.0  T
   4    -19.0589908 -0.273709E-04  0.821E-03    3.64       3.3  T
   5    -19.0589912 -0.450901E-06  0.373E-03    3.64       7.2  T
   6    -19.0589913 -0.846835E-07  0.101E-03    3.64      26.4  T
   7    -19.0589913 -0.147651E-08  0.468E-04    3.64      57.1  T
   8    -19.0589913 -0.298485E-09  0.108E-04    3.64     247.5  T
     SCC iter.                  ...        0 min,  0.002 sec
     gradient                   ...        0 min,  0.002 sec
 * total energy  :   -18.7871400 Eh     change       -0.7320333E-03 Eh
   gradient norm :     0.0102719 Eh/α   predicted    -0.6750707E-03 (  -7.78%)
   displ. norm   :     0.3809659 α      lambda       -0.7917747E-03
   maximum displ.:     0.2740255 α      in ANC's #4, #2, #1, ...

........................................................................
.............................. CYCLE    8 ..............................
........................................................................
   1    -19.0567728 -0.190568E+02  0.380E-01    3.64       0.0  T
   2    -19.0567777 -0.484825E-05  0.225E-01    3.64       1.0  T
   3    -19.0567260  0.517110E-04  0.720E-02    3.65       1.0  T
   4    -19.0567840 -0.580298E-04  0.614E-03    3.64       4.4  T
   5    -19.0567841 -0.139045E-06  0.370E-03    3.64       7.2  T
   6    -19.0567842 -0.367865E-07  0.143E-03    3.64      18.6  T
   7    -19.0567842 -0.370747E-08  0.397E-04    3.64      67.4  T
   8    -19.0567842 -0.307743E-09  0.169E-04    3.64     157.7  T
     SCC iter.                  ...        0 min,  0.002 sec
     gradient                   ...        0 min,  0.002 sec
 * total energy  :   -18.7875352 Eh     change       -0.3952208E-03 Eh
   gradient norm :     0.0177453 Eh/α   predicted    -0.4533421E-03 (  14.71%)
   displ. norm   :     0.1140930 α      lambda       -0.4659578E-03
   maximum displ.:     0.0714268 α      in ANC's #4, #2, #24, ...

........................................................................
.............................. CYCLE    9 ..............................
........................................................................
   1    -19.0614653 -0.190615E+02  0.122E-01    3.69       0.0  T
   2    -19.0614694 -0.418331E-05  0.720E-02    3.68       1.0  T
   3    -19.0614664  0.298398E-05  0.194E-02    3.68       1.4  T
   4    -19.0614697 -0.324601E-05  0.707E-03    3.68       3.8  T
   5    -19.0614701 -0.437579E-06  0.163E-03    3.68      16.4  T
   6    -19.0614701 -0.389629E-08  0.796E-04    3.68      33.6  T
   7    -19.0614701 -0.510450E-09  0.302E-04    3.68      88.6  T
     SCC iter.                  ...        0 min,  0.002 sec
     gradient                   ...        0 min,  0.002 sec
 * total energy  :   -18.7878079 Eh     change       -0.2726874E-03 Eh
   gradient norm :     0.0073304 Eh/α   predicted    -0.2360110E-03 ( -13.45%)
   displ. norm   :     0.1871789 α      lambda       -0.3037366E-03
   maximum displ.:     0.1419122 α      in ANC's #2, #4, #6, ...

........................................................................
.............................. CYCLE   10 ..............................
........................................................................
   1    -19.0630414 -0.190630E+02  0.179E-01    3.70       0.0  T
   2    -19.0630431 -0.171218E-05  0.105E-01    3.69       1.0  T
   3    -19.0630300  0.131202E-04  0.384E-02    3.69       1.0  T
   4    -19.0630449 -0.148463E-04  0.301E-03    3.69       8.9  T
   5    -19.0630449 -0.195424E-07  0.195E-03    3.69      13.7  T
   6    -19.0630449 -0.679229E-08  0.710E-04    3.69      37.6  T
   7    -19.0630449 -0.978080E-09  0.238E-04    3.69     112.1  T
     SCC iter.                  ...        0 min,  0.002 sec
     gradient                   ...        0 min,  0.001 sec
 * total energy  :   -18.7880171 Eh     change       -0.2092084E-03 Eh
   gradient norm :     0.0065370 Eh/α   predicted    -0.1571876E-03 ( -24.87%)
   displ. norm   :     0.3936166 α      lambda       -0.4652874E-03
   maximum displ.:     0.2905483 α      in ANC's #2, #4, #1, ...

........................................................................
.............................. CYCLE   11 ..............................
........................................................................
   1    -19.0597739 -0.190598E+02  0.399E-01    3.64       0.0  T
   2    -19.0597827 -0.885996E-05  0.235E-01    3.64       1.0  T
   3    -19.0597435  0.392542E-04  0.646E-02    3.65       1.0  T
   4    -19.0597884 -0.449036E-04  0.837E-03    3.65       3.2  T
   5    -19.0597887 -0.304336E-06  0.396E-03    3.65       6.7  T
   6    -19.0597887 -0.249178E-07  0.181E-03    3.65      14.8  T
   7    -19.0597887 -0.452592E-08  0.364E-04    3.65      73.3  T
   8    -19.0597887 -0.361890E-09  0.173E-04    3.65     154.4  T
     SCC iter.                  ...        0 min,  0.002 sec
     gradient                   ...        0 min,  0.001 sec
 * total energy  :   -18.7882280 Eh     change       -0.2109325E-03 Eh
   gradient norm :     0.0219839 Eh/α   predicted    -0.2686943E-03 (  27.38%)
   displ. norm   :     0.1768879 α      lambda       -0.4861370E-03
   maximum displ.:     0.1538875 α      in ANC's #2, #24, #1, ...

........................................................................
.............................. CYCLE   12 ..............................
........................................................................
   1    -19.0614691 -0.190615E+02  0.152E-01    3.70       0.0  T
   2    -19.0614725 -0.340497E-05  0.902E-02    3.70       1.0  T
   3    -19.0614725  0.240379E-07  0.870E-03    3.69       3.1  T
   4    -19.0614730 -0.461762E-06  0.389E-03    3.69       6.9  T
   5    -19.0614730 -0.995867E-07  0.244E-03    3.70      11.0  T
   6    -19.0614731 -0.308089E-07  0.746E-04    3.70      35.8  T
   7    -19.0614731 -0.549470E-09  0.179E-04    3.70     149.5  T
     SCC iter.                  ...        0 min,  0.002 sec
     gradient                   ...        0 min,  0.001 sec
 * total energy  :   -18.7883823 Eh     change       -0.1542772E-03 Eh
   gradient norm :     0.0137287 Eh/α   predicted    -0.2506710E-03 (  62.48%)
   displ. norm   :     0.1760354 α      lambda       -0.5419294E-03
   maximum displ.:     0.1005509 α      in ANC's #2, #3, #4, ...

........................................................................
.............................. CYCLE   13 ..............................
........................................................................
   1    -19.0621756 -0.190622E+02  0.187E-01    3.74       0.0  T
   2    -19.0621792 -0.358774E-05  0.109E-01    3.73       1.0  T
   3    -19.0621613  0.178477E-04  0.466E-02    3.73       1.0  T
   4    -19.0621818 -0.204487E-04  0.472E-03    3.73       5.7  T
   5    -19.0621818 -0.360333E-07  0.210E-03    3.73      12.7  T
   6    -19.0621818 -0.940774E-08  0.766E-04    3.73      34.9  T
   7    -19.0621818 -0.115717E-08  0.264E-04    3.73     101.4  T
     SCC iter.                  ...        0 min,  0.002 sec
     gradient                   ...        0 min,  0.001 sec
 * total energy  :   -18.7886129 Eh     change       -0.2306423E-03 Eh
   gradient norm :     0.0087889 Eh/α   predicted    -0.2793620E-03 (  21.12%)
   displ. norm   :     0.3314589 α      lambda       -0.4443866E-03
   maximum displ.:     0.2510889 α      in ANC's #2, #1, #4, ...

........................................................................
.............................. CYCLE   14 ..............................
........................................................................
   1    -19.0571561 -0.190572E+02  0.334E-01    3.66       0.0  T
   2    -19.0571645 -0.838721E-05  0.198E-01    3.66       1.0  T
   3    -19.0571315  0.329556E-04  0.592E-02    3.67       1.0  T
   4    -19.0571689 -0.373532E-04  0.789E-03    3.67       3.4  T
   5    -19.0571692 -0.317071E-06  0.309E-03    3.67       8.6  T
   6    -19.0571692 -0.179227E-07  0.154E-03    3.67      17.4  T
   7    -19.0571692 -0.248940E-08  0.375E-04    3.67      71.3  T
   8    -19.0571692 -0.649859E-09  0.180E-04    3.67     148.8  T
     SCC iter.                  ...        0 min,  0.002 sec
     gradient                   ...        0 min,  0.001 sec
 * total energy  :   -18.7887502 Eh     change       -0.1372089E-03 Eh
   gradient norm :     0.0211022 Eh/α   predicted    -0.2466029E-03 (  79.73%)
   displ. norm   :     0.1446264 α      lambda       -0.4314013E-03
   maximum displ.:     0.1123100 α      in ANC's #4, #2, #6, ...

........................................................................
.............................. CYCLE   15 ..............................
........................................................................
   1    -19.0649113 -0.190649E+02  0.118E-01    3.70       0.0  T
   2    -19.0649136 -0.234770E-05  0.697E-02    3.70       1.0  T
   3    -19.0649115  0.210893E-05  0.168E-02    3.70       1.6  T
   4    -19.0649140 -0.246589E-05  0.399E-03    3.70       6.7  T
   5    -19.0649141 -0.146830E-06  0.173E-03    3.70      15.4  T
   6    -19.0649141 -0.603220E-08  0.716E-04    3.70      37.3  T
   7    -19.0649141 -0.167848E-08  0.254E-04    3.70     105.3  T
     SCC iter.                  ...        0 min,  0.002 sec
     gradient                   ...        0 min,  0.001 sec
 * total energy  :   -18.7889038 Eh     change       -0.1535984E-03 Eh
   gradient norm :     0.0099827 Eh/α   predicted    -0.2202127E-03 (  43.37%)
   displ. norm   :     0.1653585 α      lambda       -0.3443387E-03
   maximum displ.:     0.0937069 α      in ANC's #4, #1, #2, ...

........................................................................
.............................. CYCLE   16 ..............................
........................................................................
   1    -19.0628631 -0.190629E+02  0.164E-01    3.76       0.0  T
   2    -19.0628666 -0.356927E-05  0.969E-02    3.75       1.0  T
   3    -19.0628615  0.514582E-05  0.247E-02    3.75       1.1  T
   4    -19.0628676 -0.606545E-05  0.558E-03    3.75       4.8  T
   5    -19.0628677 -0.157538E-06  0.198E-03    3.75      13.5  T
   6    -19.0628677 -0.267835E-07  0.935E-04    3.75      28.6  T
   7    -19.0628677 -0.138350E-08  0.414E-04    3.75      64.5  T
     SCC iter.                  ...        0 min,  0.002 sec
     gradient                   ...        0 min,  0.001 sec
 * total energy  :   -18.7890340 Eh     change       -0.1302130E-03 Eh
   gradient norm :     0.0087917 Eh/α   predicted    -0.1768769E-03 (  35.84%)
   displ. norm   :     0.2870085 α      lambda       -0.3066103E-03
   maximum displ.:     0.2018844 α      in ANC's #2, #1, #24, ...

........................................................................
.............................. CYCLE   17 ..............................
........................................................................
   1    -19.0589796 -0.190590E+02  0.290E-01    3.69       0.0  T
   2    -19.0589874 -0.773256E-05  0.171E-01    3.70       1.0  T
   3    -19.0589781  0.929678E-05  0.338E-02    3.70       1.0  T
   4    -19.0589891 -0.110650E-04  0.806E-03    3.70       3.3  T
   5    -19.0589896 -0.481063E-06  0.321E-03    3.70       8.3  T
   6    -19.0589896 -0.233078E-07  0.144E-03    3.70      18.6  T
   7    -19.0589896 -0.188753E-08  0.638E-04    3.70      41.9  T
   8    -19.0589896 -0.216658E-08  0.151E-04    3.70     177.5  T
     SCC iter.                  ...        0 min,  0.002 sec
     gradient                   ...        0 min,  0.001 sec
 * total energy  :   -18.7892005 Eh     change       -0.1664945E-03 Eh
   gradient norm :     0.0129969 Eh/α   predicted    -0.1659336E-03 (  -0.34%)
   displ. norm   :     0.1283453 α      lambda       -0.2081795E-03
   maximum displ.:     0.0863632 α      in ANC's #2, #1, #24, ...

........................................................................
.............................. CYCLE   18 ..............................
........................................................................
   1    -19.0598161 -0.190598E+02  0.115E-01    3.71       0.0  T
   2    -19.0598173 -0.121706E-05  0.677E-02    3.71       1.0  T
   3    -19.0598148  0.251983E-05  0.169E-02    3.71       1.6  T
   4    -19.0598177 -0.284314E-05  0.279E-03    3.71       9.6  T
   5    -19.0598177 -0.601609E-07  0.103E-03    3.71      25.9  T
   6    -19.0598177 -0.148971E-08  0.489E-04    3.71      54.6  T
   7    -19.0598177 -0.559346E-09  0.161E-04    3.71     165.9  T
     SCC iter.                  ...        0 min,  0.002 sec
     gradient                   ...        0 min,  0.001 sec
 * total energy  :   -18.7892813 Eh     change       -0.8083142E-04 Eh
   gradient norm :     0.0127257 Eh/α   predicted    -0.1058044E-03 (  30.90%)
   displ. norm   :     0.1511107 α      lambda       -0.2508795E-03
   maximum displ.:     0.0952482 α      in ANC's #1, #2, #24, ...

........................................................................
.............................. CYCLE   19 ..............................
........................................................................
   1    -19.0628325 -0.190628E+02  0.153E-01    3.72       0.0  T
   2    -19.0628337 -0.121851E-05  0.899E-02    3.72       1.0  T
   3    -19.0628333  0.436143E-06  0.947E-03    3.72       2.8  T
   4    -19.0628340 -0.757982E-06  0.366E-03    3.72       7.3  T
   5    -19.0628341 -0.850289E-07  0.171E-03    3.72      15.6  T
   6    -19.0628341 -0.478602E-08  0.474E-04    3.72      56.4  T
   7    -19.0628341 -0.457508E-09  0.246E-04    3.72     108.7  T
     SCC iter.                  ...        0 min,  0.002 sec
     gradient                   ...        0 min,  0.001 sec
 * total energy  :   -18.7894484 Eh     change       -0.1671402E-03 Eh
   gradient norm :     0.0068706 Eh/α   predicted    -0.1283039E-03 ( -23.24%)
   displ. norm   :     0.3169222 α      lambda       -0.2408422E-03
   maximum displ.:     0.1874712 α      in ANC's #1, #2, #24, ...

........................................................................
.............................. CYCLE   20 ..............................
........................................................................
   1    -19.0604758 -0.190605E+02  0.327E-01    3.71       0.0  T
   2    -19.0604790 -0.321128E-05  0.193E-01    3.71       1.0  T
   3    -19.0604735  0.548330E-05  0.258E-02    3.71       1.0  T
   4    -19.0604807 -0.715854E-05  0.592E-03    3.71       4.5  T
   5    -19.0604808 -0.138798E-06  0.286E-03    3.71       9.3  T
   6    -19.0604808 -0.125520E-07  0.108E-03    3.71      24.7  T
   7    -19.0604808 -0.253133E-08  0.498E-04    3.71      53.7  T
   8    -19.0604808 -0.103239E-08  0.151E-04    3.71     177.6  T
     SCC iter.                  ...        0 min,  0.002 sec
     gradient                   ...        0 min,  0.001 sec
 * total energy  :   -18.7895722 Eh     change       -0.1237658E-03 Eh
   gradient norm :     0.0147009 Eh/α   predicted    -0.1325195E-03 (   7.07%)
   displ. norm   :     0.1634714 α      lambda       -0.3815232E-03
   maximum displ.:     0.1005636 α      in ANC's #1, #24, #4, ...
 * RMSD in coord.:     0.9829859 α      energy gain  -0.1127774E-01 Eh

generating ANC from model Hessian ...
Using Lindh-Hessian (1995)
 Shifting diagonal of input Hessian by   7.131694044057182E-003
 Lowest  eigenvalues of input Hessian
    0.000000    0.000000    0.000000    0.000000    0.000000    0.000000
    0.010000    0.010774    0.014156    0.018994    0.022921    0.027926
    0.035522    0.047652    0.057428    0.061508    0.065551    0.072685
 Highest eigenvalues
    1.180861    1.191861    1.351992    1.522897    1.977797    2.236635
 

........................................................................
.............................. CYCLE   21 ..............................
........................................................................
   1    -19.0664290 -0.190664E+02  0.183E-01    3.81       0.0  T
   2    -19.0664372 -0.822260E-05  0.109E-01    3.80       1.0  T
   3    -19.0664363  0.986078E-06  0.161E-02    3.80       1.7  T
   4    -19.0664382 -0.194328E-05  0.399E-03    3.79       6.7  T
   5    -19.0664383 -0.740813E-07  0.214E-03    3.79      12.5  T
   6    -19.0664383 -0.186159E-07  0.109E-03    3.79      24.6  T
   7    -19.0664383 -0.297124E-08  0.574E-04    3.79      46.6  T
   8    -19.0664383 -0.120967E-08  0.105E-04    3.79     254.1  T
     SCC iter.                  ...        0 min,  0.002 sec
     gradient                   ...        0 min,  0.001 sec
 * total energy  :   -18.7896171 Eh     change       -0.4494703E-04 Eh
   gradient norm :     0.0176872 Eh/α   predicted     0.0000000E+00 (-100.00%)
   displ. norm   :     0.0638301 α      lambda       -0.3445605E-03
   maximum displ.:     0.0404155 α      in ANC's #3, #2, #6, ...

........................................................................
.............................. CYCLE   22 ..............................
........................................................................
   1    -19.0641253 -0.190641E+02  0.805E-02    3.75       0.0  T
   2    -19.0641273 -0.200590E-05  0.477E-02    3.76       1.0  T
   3    -19.0641272  0.862958E-07  0.734E-03    3.76       3.6  T
   4    -19.0641275 -0.276296E-06  0.196E-03    3.76      13.6  T
   5    -19.0641275 -0.204131E-07  0.139E-03    3.76      19.2  T
   6    -19.0641275 -0.112570E-07  0.497E-04    3.76      53.8  T
   7    -19.0641275 -0.337220E-09  0.312E-04    3.76      85.6  T
     SCC iter.                  ...        0 min,  0.002 sec
     gradient                   ...        0 min,  0.001 sec
 * total energy  :   -18.7898186 Eh     change       -0.2014217E-03 Eh
   gradient norm :     0.0036077 Eh/α   predicted    -0.1729834E-03 ( -14.12%)
   displ. norm   :     0.0806519 α      lambda       -0.1082994E-03
   maximum displ.:     0.0503804 α      in ANC's #3, #2, #6, ...

........................................................................
.............................. CYCLE   23 ..............................
........................................................................
   1    -19.0634592 -0.190635E+02  0.112E-01    3.74       0.0  T
   2    -19.0634600 -0.748861E-06  0.662E-02    3.74       1.0  T
   3    -19.0634599  0.798470E-07  0.599E-03    3.74       4.5  T
   4    -19.0634602 -0.263349E-06  0.224E-03    3.74      11.9  T
   5    -19.0634602 -0.204246E-07  0.150E-03    3.74      17.8  T
   6    -19.0634602 -0.880478E-08  0.631E-04    3.74      42.3  T
   7    -19.0634602 -0.814023E-09  0.247E-04    3.74     108.2  T
     SCC iter.                  ...        0 min,  0.002 sec
     gradient                   ...        0 min,  0.001 sec
 * total energy  :   -18.7898747 Eh     change       -0.5611607E-04 Eh
   gradient norm :     0.0049455 Eh/α   predicted    -0.5450137E-04 (  -2.88%)
   displ. norm   :     0.0909760 α      lambda       -0.8307578E-04
   maximum displ.:     0.0565925 α      in ANC's #3, #2, #5, ...

........................................................................
.............................. CYCLE   24 ..............................
........................................................................
   1    -19.0633147 -0.190633E+02  0.118E-01    3.74       0.0  T
   2    -19.0633154 -0.695956E-06  0.699E-02    3.74       1.0  T
   3    -19.0633155 -0.139404E-07  0.436E-03    3.74       6.1  T
   4    -19.0633156 -0.137529E-06  0.196E-03    3.74      13.6  T
   5    -19.0633156 -0.143871E-07  0.123E-03    3.74      21.8  T
   6    -19.0633156 -0.694090E-08  0.472E-04    3.74      56.6  T
   7    -19.0633156 -0.398209E-09  0.224E-04    3.74     119.2  T
     SCC iter.                  ...        0 min,  0.002 sec
     gradient                   ...        0 min,  0.001 sec
 * total energy  :   -18.7899380 Eh     change       -0.6328471E-04 Eh
   gradient norm :     0.0073816 Eh/α   predicted    -0.4188026E-04 ( -33.82%)
   displ. norm   :     0.2165183 α      lambda       -0.1643059E-03
   maximum displ.:     0.1317487 α      in ANC's #3, #2, #6, ...

........................................................................
.............................. CYCLE   25 ..............................
........................................................................
   1    -19.0625210 -0.190625E+02  0.296E-01    3.73       0.0  T
   2    -19.0625240 -0.299277E-05  0.175E-01    3.73       1.0  T
   3    -19.0625245 -0.460557E-06  0.868E-03    3.74       3.1  T
   4    -19.0625250 -0.543033E-06  0.410E-03    3.73       6.5  T
   5    -19.0625250 -0.133056E-07  0.249E-03    3.73      10.7  T
   6    -19.0625251 -0.252826E-07  0.989E-04    3.73      27.0  T
   7    -19.0625251 -0.320718E-08  0.504E-04    3.73      53.0  T
     SCC iter.                  ...        0 min,  0.002 sec
     gradient                   ...        0 min,  0.001 sec
 * total energy  :   -18.7900322 Eh     change       -0.9427290E-04 Eh
   gradient norm :     0.0116436 Eh/α   predicted    -0.8600219E-04 (  -8.77%)
   displ. norm   :     0.0949466 α      lambda       -0.1276210E-03
   maximum displ.:     0.0534638 α      in ANC's #2, #3, #6, ...

........................................................................
.............................. CYCLE   26 ..............................
........................................................................
   1    -19.0635345 -0.190635E+02  0.124E-01    3.76       0.0  T
   2    -19.0635352 -0.690341E-06  0.736E-02    3.75       1.0  T
   3    -19.0635349  0.306528E-06  0.729E-03    3.75       3.7  T
   4    -19.0635354 -0.506774E-06  0.211E-03    3.75      12.6  T
   5    -19.0635354 -0.144231E-07  0.139E-03    3.75      19.3  T
   6    -19.0635354 -0.690260E-08  0.558E-04    3.75      47.9  T
   7    -19.0635354 -0.120163E-08  0.206E-04    3.75     130.0  T
     SCC iter.                  ...        0 min,  0.002 sec
     gradient                   ...        0 min,  0.001 sec
 * total energy  :   -18.7901266 Eh     change       -0.9437991E-04 Eh
   gradient norm :     0.0070892 Eh/α   predicted    -0.6438666E-04 ( -31.78%)
   displ. norm   :     0.1674593 α      lambda       -0.1334719E-03
   maximum displ.:     0.0961600 α      in ANC's #2, #3, #6, ...

........................................................................
.............................. CYCLE   27 ..............................
........................................................................
   1    -19.0640539 -0.190641E+02  0.236E-01    3.78       0.0  T
   2    -19.0640554 -0.149145E-05  0.139E-01    3.77       1.0  T
   3    -19.0640555 -0.612443E-07  0.807E-03    3.78       3.3  T
   4    -19.0640559 -0.473923E-06  0.369E-03    3.77       7.2  T
   5    -19.0640560 -0.421818E-07  0.224E-03    3.77      11.9  T
   6    -19.0640560 -0.159248E-07  0.887E-04    3.77      30.1  T
   7    -19.0640560 -0.293325E-08  0.325E-04    3.77      82.2  T
     SCC iter.                  ...        0 min,  0.002 sec
     gradient                   ...        0 min,  0.001 sec
 * total energy  :   -18.7902199 Eh     change       -0.9331255E-04 Eh
   gradient norm :     0.0038136 Eh/α   predicted    -0.6860688E-04 ( -26.48%)
   displ. norm   :     0.1776995 α      lambda       -0.9583425E-04
   maximum displ.:     0.1003533 α      in ANC's #2, #3, #6, ...

........................................................................
.............................. CYCLE   28 ..............................
........................................................................
   1    -19.0633451 -0.190633E+02  0.255E-01    3.76       0.0  T
   2    -19.0633471 -0.204816E-05  0.150E-01    3.76       1.0  T
   3    -19.0633474 -0.282235E-06  0.705E-03    3.77       3.8  T
   4    -19.0633477 -0.335997E-06  0.348E-03    3.77       7.7  T
   5    -19.0633478 -0.190937E-07  0.223E-03    3.77      12.0  T
   6    -19.0633478 -0.214855E-07  0.888E-04    3.77      30.1  T
   7    -19.0633478 -0.221537E-08  0.372E-04    3.77      71.8  T
     SCC iter.                  ...        0 min,  0.002 sec
     gradient                   ...        0 min,  0.001 sec
 * total energy  :   -18.7902762 Eh     change       -0.5622650E-04 Eh
   gradient norm :     0.0063194 Eh/α   predicted    -0.4942959E-04 ( -12.09%)
   displ. norm   :     0.1352068 α      lambda       -0.1865396E-03
   maximum displ.:     0.0736447 α      in ANC's #2, #24, #6, ...

........................................................................
.............................. CYCLE   29 ..............................
........................................................................
   1    -19.0672389 -0.190672E+02  0.198E-01    3.83       0.0  T
   2    -19.0672440 -0.506343E-05  0.118E-01    3.82       1.0  T
   3    -19.0672436  0.370701E-06  0.107E-02    3.82       2.5  T
   4    -19.0672444 -0.844464E-06  0.430E-03    3.82       6.2  T
   5    -19.0672446 -0.126848E-06  0.233E-03    3.82      11.5  T
   6    -19.0672446 -0.258600E-07  0.103E-03    3.82      25.9  T
   7    -19.0672446 -0.191277E-08  0.449E-04    3.82      59.5  T
   8    -19.0672446 -0.796398E-09  0.114E-04    3.82     234.6  T
     SCC iter.                  ...        0 min,  0.002 sec
     gradient                   ...        0 min,  0.002 sec
 * total energy  :   -18.7902066 Eh     change        0.6955224E-04 Eh
   gradient norm :     0.0143991 Eh/α   predicted    -0.9497527E-04 (-236.55%)
   displ. norm   :     0.1469939 α      lambda       -0.2800522E-03
   maximum displ.:     0.0934775 α      in ANC's #3, #2, #4, ...

........................................................................
.............................. CYCLE   30 ..............................
........................................................................
   1    -19.0638762 -0.190639E+02  0.225E-01    3.77       0.0  T
   2    -19.0638818 -0.557028E-05  0.133E-01    3.78       1.0  T
   3    -19.0638818  0.160336E-07  0.106E-02    3.78       2.5  T
   4    -19.0638825 -0.751777E-06  0.347E-03    3.78       7.7  T
   5    -19.0638825 -0.947199E-08  0.257E-03    3.78      10.4  T
   6    -19.0638826 -0.410863E-07  0.998E-04    3.78      26.8  T
   7    -19.0638826 -0.137288E-08  0.236E-04    3.78     113.1  T
     SCC iter.                  ...        0 min,  0.002 sec
     gradient                   ...        0 min,  0.001 sec
 * total energy  :   -18.7903369 Eh     change       -0.1302767E-03 Eh
   gradient norm :     0.0047528 Eh/α   predicted    -0.1430522E-03 (   9.81%)
   displ. norm   :     0.1073657 α      lambda       -0.4887352E-04
   maximum displ.:     0.0627108 α      in ANC's #2, #6, #1, ...

........................................................................
.............................. CYCLE   31 ..............................
........................................................................
   1    -19.0648768 -0.190649E+02  0.152E-01    3.79       0.0  T
   2    -19.0648774 -0.638171E-06  0.898E-02    3.79       1.0  T
   3    -19.0648775 -0.124238E-06  0.376E-03    3.79       7.1  T
   4    -19.0648776 -0.820114E-07  0.182E-03    3.79      14.7  T
   5    -19.0648776  0.160116E-08  0.126E-03    3.79      21.3  T
   6    -19.0648776 -0.894005E-08  0.403E-04    3.79      66.2  T
   7    -19.0648776 -0.490591E-09  0.133E-04    3.79     201.0  T
     SCC iter.                  ...        0 min,  0.002 sec
     gradient                   ...        0 min,  0.001 sec
 * total energy  :   -18.7903537 Eh     change       -0.1685985E-04 Eh
   gradient norm :     0.0007649 Eh/α   predicted    -0.2471700E-04 (  46.60%)
   displ. norm   :     0.0873505 α      lambda       -0.1443620E-04
   maximum displ.:     0.0501815 α      in ANC's #3, #2, #4, ...

........................................................................
.............................. CYCLE   32 ..............................
........................................................................
   1    -19.0645300 -0.190645E+02  0.136E-01    3.78       0.0  T
   2    -19.0645305 -0.522190E-06  0.802E-02    3.78       1.0  T
   3    -19.0645306 -0.823264E-07  0.368E-03    3.78       7.3  T
   4    -19.0645307 -0.787691E-07  0.202E-03    3.78      13.2  T
   5    -19.0645307 -0.132303E-07  0.123E-03    3.78      21.7  T
   6    -19.0645307 -0.615698E-08  0.448E-04    3.78      59.6  T
   7    -19.0645307 -0.333795E-09  0.134E-04    3.78     198.8  T
     SCC iter.                  ...        0 min,  0.002 sec
     gradient                   ...        0 min,  0.001 sec
 * total energy  :   -18.7903706 Eh     change       -0.1685782E-04 Eh
   gradient norm :     0.0019865 Eh/α   predicted    -0.7244686E-05 ( -57.02%)
   displ. norm   :     0.1494748 α      lambda       -0.2035054E-04
   maximum displ.:     0.0869222 α      in ANC's #3, #2, #4, ...

........................................................................
.............................. CYCLE   33 ..............................
........................................................................
   1    -19.0639158 -0.190639E+02  0.236E-01    3.78       0.0  T
   2    -19.0639171 -0.128463E-05  0.139E-01    3.78       1.0  T
   3    -19.0639172 -0.159503E-06  0.682E-03    3.78       3.9  T
   4    -19.0639175 -0.305481E-06  0.368E-03    3.78       7.3  T
   5    -19.0639176 -0.549895E-07  0.211E-03    3.78      12.7  T
   6    -19.0639176 -0.122850E-07  0.651E-04    3.78      41.0  T
   7    -19.0639176 -0.950102E-09  0.245E-04    3.78     109.2  T
     SCC iter.                  ...        0 min,  0.002 sec
     gradient                   ...        0 min,  0.001 sec
 * total energy  :   -18.7903819 Eh     change       -0.1131097E-04 Eh
   gradient norm :     0.0040277 Eh/α   predicted    -0.1027723E-04 (  -9.14%)
   displ. norm   :     0.0203195 α      lambda       -0.1502362E-04
   maximum displ.:     0.0180777 α      in ANC's #1, #2, #3, ...

........................................................................
.............................. CYCLE   34 ..............................
........................................................................
   1    -19.0644415 -0.190644E+02  0.176E-02    3.78       0.0  T
   2    -19.0644415 -0.396452E-07  0.104E-02    3.78       2.6  T
   3    -19.0644415  0.111322E-07  0.137E-03    3.78      19.5  T
   4    -19.0644415 -0.148202E-07  0.519E-04    3.78      51.5  T
   5    -19.0644415 -0.244870E-08  0.199E-04    3.78     134.5  T
     SCC iter.                  ...        0 min,  0.001 sec
     gradient                   ...        0 min,  0.001 sec
 * total energy  :   -18.7903916 Eh     change       -0.9719258E-05 Eh
   gradient norm :     0.0022326 Eh/α   predicted    -0.7513353E-05 ( -22.70%)
   displ. norm   :     0.0281826 α      lambda       -0.6489461E-05
   maximum displ.:     0.0126541 α      in ANC's #1, #4, #2, ...

........................................................................
.............................. CYCLE   35 ..............................
........................................................................
   1    -19.0647404 -0.190647E+02  0.380E-02    3.79       0.0  T
   2    -19.0647405 -0.420966E-07  0.225E-02    3.78       1.2  T
   3    -19.0647405 -0.192165E-08  0.129E-03    3.78      20.7  T
   4    -19.0647405 -0.123957E-07  0.616E-04    3.78      43.4  T
   5    -19.0647405 -0.157585E-08  0.364E-04    3.78      73.5  T
     SCC iter.                  ...        0 min,  0.001 sec
     gradient                   ...        0 min,  0.001 sec
 * total energy  :   -18.7903965 Eh     change       -0.4850071E-05 Eh
   gradient norm :     0.0012131 Eh/α   predicted    -0.3246649E-05 ( -33.06%)
   displ. norm   :     0.0941937 α      lambda       -0.7149875E-05
   maximum displ.:     0.0411036 α      in ANC's #2, #4, #6, ...

........................................................................
.............................. CYCLE   36 ..............................
........................................................................
   1    -19.0647934 -0.190648E+02  0.134E-01    3.78       0.0  T
   2    -19.0647939 -0.497693E-06  0.790E-02    3.78       1.0  T
   3    -19.0647940 -0.108139E-06  0.348E-03    3.79       7.7  T
   4    -19.0647941 -0.707434E-07  0.186E-03    3.78      14.4  T
   5    -19.0647941 -0.563821E-08  0.118E-03    3.78      22.6  T
   6    -19.0647941 -0.565402E-08  0.483E-04    3.78      55.4  T
   7    -19.0647941 -0.758675E-09  0.180E-04    3.78     148.6  T
     SCC iter.                  ...        0 min,  0.002 sec
     gradient                   ...        0 min,  0.001 sec
 * total energy  :   -18.7904033 Eh     change       -0.6852026E-05 Eh
   gradient norm :     0.0014705 Eh/α   predicted    -0.3589645E-05 ( -47.61%)
   displ. norm   :     0.0555784 α      lambda       -0.3992170E-05
   maximum displ.:     0.0280161 α      in ANC's #4, #1, #2, ...

........................................................................
.............................. CYCLE   37 ..............................
........................................................................
   1    -19.0649309 -0.190649E+02  0.723E-02    3.79       0.0  T
   2    -19.0649311 -0.199790E-06  0.427E-02    3.79       1.0  T
   3    -19.0649312 -0.444564E-07  0.184E-03    3.79      14.5  T
   4    -19.0649312 -0.105288E-07  0.113E-03    3.79      23.7  T
   5    -19.0649312 -0.422625E-08  0.708E-04    3.79      37.8  T
   6    -19.0649312 -0.200784E-08  0.270E-04    3.79      98.9  T
     SCC iter.                  ...        0 min,  0.002 sec
     gradient                   ...        0 min,  0.001 sec
 * total energy  :   -18.7904047 Eh     change       -0.1386583E-05 Eh
   gradient norm :     0.0014297 Eh/α   predicted    -0.1998782E-05 (  44.15%)
   displ. norm   :     0.0313152 α      lambda       -0.2288418E-05
   maximum displ.:     0.0191798 α      in ANC's #1, #3, #4, ...

........................................................................
.............................. CYCLE   38 ..............................
........................................................................
   1    -19.0646576 -0.190647E+02  0.375E-02    3.78       0.0  T
   2    -19.0646578 -0.148611E-06  0.221E-02    3.79       1.2  T
   3    -19.0646578 -0.414166E-08  0.180E-03    3.79      14.9  T
   4    -19.0646578 -0.170128E-07  0.783E-04    3.79      34.1  T
   5    -19.0646578 -0.249413E-08  0.496E-04    3.79      53.9  T
     SCC iter.                  ...        0 min,  0.001 sec
     gradient                   ...        0 min,  0.001 sec
 * total energy  :   -18.7904061 Eh     change       -0.1354385E-05 Eh
   gradient norm :     0.0008274 Eh/α   predicted    -0.1144409E-05 ( -15.50%)
   displ. norm   :     0.0329800 α      lambda       -0.1506722E-05
   maximum displ.:     0.0177334 α      in ANC's #2, #3, #4, ...

   *** GEOMETRY OPTIMIZATION CONVERGED AFTER 38 ITERATIONS ***

------------------------------------------------------------------------
 total energy gain   :        -0.0121116 Eh       -7.6002 kcal/mol
 total RMSD          :         1.2241595 a0        0.6478 Å
 total power (kW/mol):        -0.8368171 (step) -195.3964 (real)
------------------------------------------------------------------------

 ANCopt (total)                0 d,  0 h,  0 min,  0.163 sec
 optimizer setup                ...        0 min,  0.000 sec (  0.061%)
 model hessian                  ...        0 min,  0.005 sec (  3.200%)
 ANC generation                 ...        0 min,  0.000 sec (  0.224%)
 coordinate transformation      ...        0 min,  0.000 sec (  0.209%)
 single point calculation       ...        0 min,  0.149 sec ( 91.461%)
 optimization log               ...        0 min,  0.003 sec (  1.716%)
 hessian update                 ...        0 min,  0.000 sec (  0.180%)
 rational function              ...        0 min,  0.003 sec (  1.721%)

================
 final structure:
================
14
 xtb: 6.5.1 (579679a)
C           -5.51204884105797        1.56144762581944        0.61989073082181
C           -5.44032473724879        2.60334596582089       -0.45289833292825
C           -5.56981016247767        3.89951352599546       -0.24558780287813
O           -1.95126986339103        1.52734783420345        0.50199781630215
C           -3.03539071391171        1.60706542688266        1.00573862639442
C           -4.21682040683756        0.74349785602901        0.67349169573333
H           -6.34472979673708        0.88428285176563        0.41105471019233
H           -5.69184720637339        2.03480281866287        1.58716690249088
H           -5.25813279234763        2.22508512171714       -1.45026341475208
H           -5.75052390892667        4.30284551471459        0.73773893173302
H           -5.50732383241895        4.61459620657160       -1.04765828875997
H           -3.24525236442638        2.35588422887416        1.79595220537922
H           -4.03542128224569        0.22912312925488       -0.27188674839160
H           -4.29508409159967       -0.01032810631178        1.46284296866278
 
 Bond Distances (Angstroems)
 ---------------------------
C1-C2=1.4972         C1-C6=1.5328         C1-H7=1.0934         C1-H8=1.0918         C2-C1=1.4972         C2-C3=1.3190         
C2-H9=1.0821         C3-C2=1.3190         C3-H10=1.0781        C3-H11=1.0764        O4-C5=1.1981         C5-O4=1.1981         
C5-C6=1.5006         C5-H12=1.1087        C6-C1=1.5328         C6-C5=1.5006         C6-H13=1.0914        C6-H14=1.0943        
H7-C1=1.0934         H8-C1=1.0918         H9-C2=1.0821         H10-C3=1.0781        H11-C3=1.0764        H12-C5=1.1087        
H13-C6=1.0914        H14-C6=1.0943        
 C  H  Rav=1.0895 sigma=0.0098  Rmin=1.0764  Rmax=1.1087     8
 C  C  Rav=1.4624 sigma=0.0840  Rmin=1.3190  Rmax=1.5328     4
 O  C  Rav=1.1981 sigma=0.0000  Rmin=1.1981  Rmax=1.1981     1
 
 selected bond angles (degree)
 --------------------
C6-C1-C2=110.85                H7-C1-C2=109.31                H7-C1-C6=108.65                H8-C1-C2=109.94                
H8-C1-C6=109.85                H8-C1-H7=108.20                C3-C2-C1=124.51                H9-C2-C1=115.16                
H9-C2-C3=120.32                H10-C3-C2=121.83               H11-C3-C2=122.01               H11-C3-H10=116.16              
C6-C5-O4=125.52                H12-C5-O4=121.06               H12-C5-C6=113.42               C5-C6-C1=111.46                
H13-C6-C1=111.20               H13-C6-C5=109.40               H14-C6-C1=109.41               H14-C6-C5=107.04               
H14-C6-H13=108.18              
 
 selected dihedral angles (degree)
 ---------------------------------
C3-C2-C1-C6=238.69            C3-C2-C1-H7=118.96            C3-C2-C1-H8=  0.33            H9-C2-C1-C6= 58.02            
H9-C2-C1-H7=298.29            H9-C2-C1-H8=179.67            H10-C3-C2-C1=359.38           H10-C3-C2-H9=180.07           
H11-C3-C2-C1=179.76           H11-C3-C2-H9=  0.45           C5-C6-C1-C2= 61.89            C5-C6-C1-H7=182.01            
C5-C6-C1-H8=300.19            H13-C6-C1-C2=299.52           H13-C6-C1-H7= 59.65           H13-C6-C1-H8=177.83           
H14-C6-C1-C2=180.08           H14-C6-C1-H7=300.21           H14-C6-C1-H8= 58.38           C1-C6-C5-O4=220.87            
C1-C6-C5-H12= 41.37           H13-C6-C5-O4=344.26           H13-C6-C5-H12=164.77          H14-C6-C5-O4=101.26           
H14-C6-C5-H12=281.76          
           -------------------------------------------------
          |                Final Singlepoint                |
           -------------------------------------------------

          ...................................................
          :                      SETUP                      :
          :.................................................:
          :  # basis functions                  32          :
          :  # atomic orbitals                  32          :
          :  # shells                           20          :
          :  # electrons                        34          :
          :  max. iterations                   250          :
          :  Hamiltonian                  GFN2-xTB          :
          :  restarted?                      false          :
          :  GBSA solvation                  false          :
          :  PC potential                    false          :
          :  electronic temp.          300.0000000     K    :
          :  accuracy                    1.0000000          :
          :  -> integral cutoff          0.2500000E+02      :
          :  -> integral neglect         0.1000000E-07      :
          :  -> SCF convergence          0.1000000E-05 Eh   :
          :  -> wf. convergence          0.1000000E-03 e    :
          :  Broyden damping             0.4000000          :
          ...................................................

 iter      E             dE          RMSdq      gap      omega  full diag
   1    -19.0646578 -0.190647E+02  0.187E-04    3.79       0.0  T
   2    -19.0646578 -0.309832E-10  0.125E-04    3.79     214.1  T
   3    -19.0646578  0.160050E-10  0.737E-05    3.79     362.8  T

   *** convergence criteria satisfied after 3 iterations ***

         #    Occupation            Energy/Eh            Energy/eV
      -------------------------------------------------------------
         1        2.0000           -0.7201654             -19.5967
       ...           ...                  ...                  ...
        11        2.0000           -0.5034433             -13.6994
        12        2.0000           -0.4900591             -13.3352
        13        2.0000           -0.4676336             -12.7250
        14        2.0000           -0.4578222             -12.4580
        15        2.0000           -0.4387184             -11.9381
        16        2.0000           -0.4142142             -11.2713
        17        2.0000           -0.4033275             -10.9751 (HOMO)
        18                         -0.2641958              -7.1891 (LUMO)
        19                         -0.2112203              -5.7476
        20                          0.0838170               2.2808
        21                          0.0951447               2.5890
        22                          0.1077218               2.9313
       ...                                ...                  ...
        32                          0.6168702              16.7859
      -------------------------------------------------------------
                  HL-Gap            0.1391316 Eh            3.7860 eV
             Fermi-level           -0.3337616 Eh           -9.0821 eV

 SCC (total)                   0 d,  0 h,  0 min,  0.003 sec
 SCC setup                      ...        0 min,  0.000 sec (  2.546%)
 Dispersion                     ...        0 min,  0.000 sec (  1.127%)
 classical contributions        ...        0 min,  0.000 sec (  0.434%)
 integral evaluation            ...        0 min,  0.000 sec ( 15.701%)
 iterations                     ...        0 min,  0.001 sec ( 32.663%)
 molecular gradient             ...        0 min,  0.001 sec ( 43.769%)
 printout                       ...        0 min,  0.000 sec (  2.648%)

         :::::::::::::::::::::::::::::::::::::::::::::::::::::
         ::                     SUMMARY                     ::
         :::::::::::::::::::::::::::::::::::::::::::::::::::::
         :: total energy             -18.790406075908 Eh    ::
         :: gradient norm              0.000824648564 Eh/a0 ::
         :: HOMO-LUMO gap              3.785964506502 eV    ::
         ::.................................................::
         :: SCC energy               -19.064657823388 Eh    ::
         :: -> isotropic ES            0.023164674307 Eh    ::
         :: -> anisotropic ES          0.002556236021 Eh    ::
         :: -> anisotropic XC          0.010821632978 Eh    ::
         :: -> dispersion             -0.007867965633 Eh    ::
         :: repulsion energy           0.274233639379 Eh    ::
         :: add. restraining           0.000000000000 Eh    ::
         :: total charge              -0.000000000000 e     ::
         :::::::::::::::::::::::::::::::::::::::::::::::::::::

           -------------------------------------------------
          |                Property Printout                |
           -------------------------------------------------

    * Orbital Energies and Occupations

         #    Occupation            Energy/Eh            Energy/eV
      -------------------------------------------------------------
         1        2.0000           -0.7201654             -19.5967
       ...           ...                  ...                  ...
         5        2.0000           -0.5930965             -16.1390
         6        2.0000           -0.5643211             -15.3560
         7        2.0000           -0.5482374             -14.9183
         8        2.0000           -0.5460776             -14.8595
         9        2.0000           -0.5361501             -14.5894
        10        2.0000           -0.5084125             -13.8346
        11        2.0000           -0.5034433             -13.6994
        12        2.0000           -0.4900591             -13.3352
        13        2.0000           -0.4676336             -12.7250
        14        2.0000           -0.4578222             -12.4580
        15        2.0000           -0.4387184             -11.9381
        16        2.0000           -0.4142142             -11.2713
        17        2.0000           -0.4033275             -10.9751 (HOMO)
        18                         -0.2641958              -7.1891 (LUMO)
        19                         -0.2112203              -5.7476
        20                          0.0838170               2.2808
        21                          0.0951447               2.5890
        22                          0.1077218               2.9313
        23                          0.1194321               3.2499
        24                          0.1452804               3.9533
        25                          0.1668706               4.5408
        26                          0.1935110               5.2657
        27                          0.2174585               5.9173
        28                          0.2452464               6.6735
       ...                                ...                  ...
        32                          0.6168702              16.7859
      -------------------------------------------------------------
                  HL-Gap            0.1391316 Eh            3.7860 eV
             Fermi-level           -0.3337616 Eh           -9.0821 eV

     #   Z          covCN         q      C6AA      α(0)
     1   6 C        3.808    -0.059    21.624     6.620
     2   6 C        2.887    -0.030    28.754     8.791
     3   6 C        2.837    -0.093    30.318     9.023
     4   8 O        0.856    -0.322    20.178     6.023
     5   6 C        2.758     0.218    23.402     7.922
     6   6 C        3.804    -0.083    22.081     6.690
     7   1 H        0.924     0.051     2.311     2.377
     8   1 H        0.924     0.045     2.389     2.417
     9   1 H        0.925     0.038     2.478     2.462
    10   1 H        0.926     0.038     2.477     2.461
    11   1 H        0.926     0.041     2.438     2.442
    12   1 H        0.922     0.020     2.739     2.588
    13   1 H        0.924     0.068     2.107     2.270
    14   1 H        0.924     0.069     2.095     2.264

 Mol. C6AA /au·bohr⁶  :       1745.574941
 Mol. C8AA /au·bohr⁸  :      38947.351751
 Mol. α(0) /au        :         64.349098


Wiberg/Mayer (AO) data.
largest (>0.10) Wiberg bond orders for each atom

 ---------------------------------------------------------------------------
     #   Z sym  total        # sym  WBO       # sym  WBO       # sym  WBO
 ---------------------------------------------------------------------------
     1   6 C    3.995 --     2 C    1.024     6 C    0.981     8 H    0.974
                             7 H    0.961
     2   6 C    3.991 --     3 C    1.983     1 C    1.024     9 H    0.966
     3   6 C    3.992 --     2 C    1.983    11 H    0.977    10 H    0.975
     4   8 O    2.095 --     5 C    1.931
     5   6 C    3.912 --     4 O    1.931     6 C    1.010    12 H    0.930
     6   6 C    3.995 --     5 C    1.010     1 C    0.981    13 H    0.969
                            14 H    0.938
     7   1 H    0.997 --     1 C    0.961
     8   1 H    0.998 --     1 C    0.974
     9   1 H    0.999 --     2 C    0.966
    10   1 H    0.999 --     3 C    0.975
    11   1 H    0.998 --     3 C    0.977
    12   1 H    1.000 --     5 C    0.930
    13   1 H    0.995 --     6 C    0.969
    14   1 H    0.995 --     6 C    0.938
 ---------------------------------------------------------------------------

Topologies differ in total number of bonds
Writing topology from bond orders to xtbtopo.mol

molecular dipole:
                 x           y           z       tot (Debye)
 q only:       -1.003      -0.194       0.267
   full:       -1.155      -0.199       0.384       3.134
molecular quadrupole (traceless):
                xx          xy          yy          xz          yz          zz
 q only:       10.843      -1.733      -6.618      -4.074       0.925      -4.225
  q+dip:        9.499      -2.024      -6.356      -5.759       2.352      -3.143
   full:       10.390      -2.246      -6.852      -5.223       1.390      -3.538

           -------------------------------------------------
          |                Geometry Summary                 |
           -------------------------------------------------

      molecular mass/u    :       84.1166104
   center of mass at/Å    :       -4.2466539       1.9769618       0.3626754
  moments of inertia/u·Å² :        0.8074995E+02   0.2320089E+03   0.2820823E+03
rotational constants/cm⁻¹ :        0.2087634E+00   0.7265943E-01   0.5976140E-01

 * 10 selected distances

     #   Z          #   Z                                           value/Å
     2   6 C        3   6 C                                       1.3190128
     4   8 O        5   6 C                                       1.1980935
     1   6 C        6   6 C                                       1.5328183 (max)
     1   6 C        7   1 H                                       1.0933995
     1   6 C        8   1 H                                       1.0917949
     2   6 C        9   1 H                                       1.0821333
     3   6 C       10   1 H                                       1.0780843
     3   6 C       11   1 H                                       1.0763666 (min)
     6   6 C       13   1 H                                       1.0914337
     6   6 C       14   1 H                                       1.0942826

 * 3 distinct bonds (by element types)

   Z      Z             #   av. dist./Å        max./Å        min./Å
   1 H    6 C           7     1.0867850     1.0942826     1.0763666
   6 C    6 C           2     1.4259156     1.5328183     1.3190128
   6 C    8 O           1     1.1980935     1.1980935     1.1980935


optimized geometry written to: xtbopt.xyz


           -------------------------------------------------
          | TOTAL ENERGY              -18.790406075908 Eh   |
          | GRADIENT NORM               0.000824648564 Eh/α |
          | HOMO-LUMO GAP               3.785964506502 eV   |
           -------------------------------------------------

------------------------------------------------------------------------
 * finished run on 2023/06/22 at 18:13:41.581     
------------------------------------------------------------------------
 total:
 * wall-time:     0 d,  0 h,  0 min,  0.200 sec
 *  cpu-time:     0 d,  0 h,  0 min,  0.375 sec
 * ratio c/w:     1.876 speedup
 SCF:
 * wall-time:     0 d,  0 h,  0 min,  0.006 sec
 *  cpu-time:     0 d,  0 h,  0 min,  0.011 sec
 * ratio c/w:     1.988 speedup
 ANC optimizer:
 * wall-time:     0 d,  0 h,  0 min,  0.166 sec
 *  cpu-time:     0 d,  0 h,  0 min,  0.331 sec
 * ratio c/w:     1.992 speedup

