
                                 *****************
                                 * O   R   C   A *
                                 *****************

                                            #,                                       
                                            ###                                      
                                            ####                                     
                                            #####                                    
                                            ######                                   
                                           ########,                                 
                                     ,,################,,,,,                         
                               ,,#################################,,                 
                          ,,##########################################,,             
                       ,#########################################, ''#####,          
                    ,#############################################,,   '####,        
                  ,##################################################,,,,####,       
                ,###########''''           ''''###############################       
              ,#####''   ,,,,##########,,,,          '''####'''          '####       
            ,##' ,,,,###########################,,,                        '##       
           ' ,,###''''                  '''############,,,                           
         ,,##''                                '''############,,,,        ,,,,,,###''
      ,#''                                            '''#######################'''  
     '                                                          ''''####''''         
             ,#######,   #######,   ,#######,      ##                                
            ,#'     '#,  ##    ##  ,#'     '#,    #''#        ######   ,####,        
            ##       ##  ##   ,#'  ##            #'  '#       #        #'  '#        
            ##       ##  #######   ##           ,######,      #####,   #    #        
            '#,     ,#'  ##    ##  '#,     ,#' ,#      #,         ##   #,  ,#        
             '#######'   ##     ##  '#######'  #'      '#     #####' # '####'        



                  #######################################################
                  #                        -***-                        #
                  #          Department of theory and spectroscopy      #
                  #    Directorship and core code : Frank Neese         #
                  #        Max Planck Institute fuer Kohlenforschung    #
                  #                Kaiser Wilhelm Platz 1               #
                  #                 D-45470 Muelheim/Ruhr               #
                  #                      Germany                        #
                  #                                                     #
                  #                  All rights reserved                #
                  #                        -***-                        #
                  #######################################################


                         Program Version 5.0.2 -  RELEASE  -


 With contributions from (in alphabetic order):
   Daniel Aravena         : Magnetic Suceptibility
   Michael Atanasov       : Ab Initio Ligand Field Theory (pilot matlab implementation)
   Alexander A. Auer      : GIAO ZORA, VPT2 properties, NMR spectrum
   Ute Becker             : Parallelization
   Giovanni Bistoni       : ED, misc. LED, open-shell LED, HFLD
   Martin Brehm           : Molecular dynamics
   Dmytro Bykov           : SCF Hessian
   Vijay G. Chilkuri      : MRCI spin determinant printing, contributions to CSF-ICE
   Dipayan Datta          : RHF DLPNO-CCSD density
   Achintya Kumar Dutta   : EOM-CC, STEOM-CC
   Dmitry Ganyushin       : Spin-Orbit,Spin-Spin,Magnetic field MRCI
   Miquel Garcia          : C-PCM and meta-GGA Hessian, CC/C-PCM, Gaussian charge scheme
   Yang Guo               : DLPNO-NEVPT2, F12-NEVPT2, CIM, IAO-localization
   Andreas Hansen         : Spin unrestricted coupled pair/coupled cluster methods
   Benjamin Helmich-Paris : MC-RPA, TRAH-SCF, COSX integrals
   Lee Huntington         : MR-EOM, pCC
   Robert Izsak           : Overlap fitted RIJCOSX, COSX-SCS-MP3, EOM
   Marcus Kettner         : VPT2
   Christian Kollmar      : KDIIS, OOCD, Brueckner-CCSD(T), CCSD density, CASPT2, CASPT2-K
   Simone Kossmann        : Meta GGA functionals, TD-DFT gradient, OOMP2, MP2 Hessian
   Martin Krupicka        : Initial AUTO-CI
   Lucas Lang             : DCDCAS
   Marvin Lechner         : AUTO-CI (C++ implementation), FIC-MRCC
   Dagmar Lenk            : GEPOL surface, SMD
   Dimitrios Liakos       : Extrapolation schemes; Compound Job, initial MDCI parallelization
   Dimitrios Manganas     : Further ROCIS development; embedding schemes
   Dimitrios Pantazis     : SARC Basis sets
   Anastasios Papadopoulos: AUTO-CI, single reference methods and gradients
   Taras Petrenko         : DFT Hessian,TD-DFT gradient, ASA, ECA, R-Raman, ABS, FL, XAS/XES, NRVS
   Peter Pinski           : DLPNO-MP2, DLPNO-MP2 Gradient
   Christoph Reimann      : Effective Core Potentials
   Marius Retegan         : Local ZFS, SOC
   Christoph Riplinger    : Optimizer, TS searches, QM/MM, DLPNO-CCSD(T), (RO)-DLPNO pert. Triples
   Tobias Risthaus        : Range-separated hybrids, TD-DFT gradient, RPA, STAB
   Michael Roemelt        : Original ROCIS implementation
   Masaaki Saitow         : Open-shell DLPNO-CCSD energy and density
   Barbara Sandhoefer     : DKH picture change effects
   Avijit Sen             : IP-ROCIS
   Kantharuban Sivalingam : CASSCF convergence, NEVPT2, FIC-MRCI
   Bernardo de Souza      : ESD, SOC TD-DFT
   Georgi Stoychev        : AutoAux, RI-MP2 NMR, DLPNO-MP2 response
   Willem Van den Heuvel  : Paramagnetic NMR
   Boris Wezisla          : Elementary symmetry handling
   Frank Wennmohs         : Technical directorship


 We gratefully acknowledge several colleagues who have allowed us to
 interface, adapt or use parts of their codes:
   Stefan Grimme, W. Hujo, H. Kruse, P. Pracht,  : VdW corrections, initial TS optimization,
                  C. Bannwarth, S. Ehlert          DFT functionals, gCP, sTDA/sTD-DF
   Ed Valeev, F. Pavosevic, A. Kumar             : LibInt (2-el integral package), F12 methods
   Garnet Chan, S. Sharma, J. Yang, R. Olivares  : DMRG
   Ulf Ekstrom                                   : XCFun DFT Library
   Mihaly Kallay                                 : mrcc  (arbitrary order and MRCC methods)
   Jiri Pittner, Ondrej Demel                    : Mk-CCSD
   Frank Weinhold                                : gennbo (NPA and NBO analysis)
   Christopher J. Cramer and Donald G. Truhlar   : smd solvation model
   Lars Goerigk                                  : TD-DFT with DH, B97 family of functionals
   V. Asgeirsson, H. Jonsson                     : NEB implementation
   FAccTs GmbH                                   : IRC, NEB, NEB-TS, DLPNO-Multilevel, CI-OPT
                                                   MM, QMMM, 2- and 3-layer-ONIOM, Crystal-QMMM,
                                                   LR-CPCM, SF, NACMEs, symmetry and pop. for TD-DFT,
                                                   nearIR, NL-DFT gradient (VV10), updates on ESD,
                                                   ML-optimized integration grids
   S Lehtola, MJT Oliveira, MAL Marques          : LibXC Library
   Liviu Ungur et al                             : ANISO software


 Your calculation uses the libint2 library for the computation of 2-el integrals
 For citations please refer to: http://libint.valeyev.net

 Your ORCA version has been built with support for libXC version: 5.1.0
 For citations please refer to: https://tddft.org/programs/libxc/

 This ORCA versions uses:
   CBLAS   interface :  Fast vector & matrix operations
   LAPACKE interface :  Fast linear algebra routines
   SCALAPACK package :  Parallel linear algebra routines
   Shared memory     :  Shared parallel matrices
   BLAS/LAPACK       :  OpenBLAS 0.3.15  USE64BITINT DYNAMIC_ARCH NO_AFFINITY Haswell SINGLE_THREADED
        Core in use  :  Haswell
   Copyright (c) 2011-2014, The OpenBLAS Project




***************************************
The coordinates will be read from file: H.xyz
***************************************


Your calculation utilizes the geometrical counterpoise correction gCP
Please cite in your paper:
H.Kruse, S. Grimme J.Chem.Phys., 136, (2012), 154101 
   

Your calculation utilizes the atom-pairwise dispersion correction
with the Becke-Johnson damping scheme (D3BJ)
Cite in your paper:
S.Grimme, S.Ehrlich, L.Goerigk, J Comput Chem, (2011), 32, 1456–1465 
S.Grimme, J.Antony, S.Ehrlich and H.Krieg, J.Chem.Phys., 132, (2010), 154104 
   

Your calculation employs the composite approach PBEh-3c.
Please cite in your paper:
S. Grimme, J. G. Brandenburg, C. Bannwarth, A. Hansen J.Chem.Phys., 143, (2015), 054107 
   

================================================================================

----- Orbital basis set information -----
Your calculation utilizes the basis: def2-mSVP

----- AuxJ basis set information -----
Your calculation utilizes the auxiliary basis: def2/J
   F. Weigend, Phys. Chem. Chem. Phys. 8, 1057 (2006).

================================================================================
                                        WARNINGS
                       Please study these warnings very carefully!
================================================================================


WARNING: Geometry Optimization
  ===> : Switching off AutoStart
         For restart on a previous wavefunction, please use MOREAD

INFO   : the flag for use of the SHARK integral package has been found!

================================================================================
                                       INPUT FILE
================================================================================
NAME = H.inp
|  1> ! PBEh-3c Opt
|  2> 
|  3> *xyzfile 0 1 H.xyz
|  4> 
|  5> 
|  6>                          ****END OF INPUT****
================================================================================

                       *****************************
                       * Geometry Optimization Run *
                       *****************************

Geometry optimization settings:
Update method            Update   .... BFGS
Choice of coordinates    CoordSys .... Z-matrix Internals
Initial Hessian          InHess   .... Almoef's Model

Convergence Tolerances:
Energy Change            TolE     ....  5.0000e-06 Eh
Max. Gradient            TolMAXG  ....  3.0000e-04 Eh/bohr
RMS Gradient             TolRMSG  ....  1.0000e-04 Eh/bohr
Max. Displacement        TolMAXD  ....  4.0000e-03 bohr
RMS Displacement         TolRMSD  ....  2.0000e-03 bohr
Strict Convergence                ....  False
------------------------------------------------------------------------------
                        ORCA OPTIMIZATION COORDINATE SETUP
------------------------------------------------------------------------------

The optimization will be done in new redundant internal coordinates
Making redundant internal coordinates   ...  (new redundants) done
Evaluating the initial hessian          ...  (Almloef) done
Evaluating the coordinates              ...  done
Calculating the B-matrix                .... done
Calculating the G-matrix                .... done
Diagonalizing the G-matrix              .... done
The first mode is                       ....  133
The number of degrees of freedom        ....  108

    -----------------------------------------------------------------
                    Redundant Internal Coordinates


    -----------------------------------------------------------------
         Definition                    Initial Value    Approx d2E/dq
    -----------------------------------------------------------------
      1. B(C   1,C   0)                  1.4028         0.596002   
      2. B(C   3,C   2)                  1.3946         0.614273   
      3. B(C   4,C   0)                  1.4133         0.573489   
      4. B(C   4,C   3)                  1.4109         0.578726   
      5. B(C   5,C   1)                  1.3991         0.604166   
      6. B(C   5,C   2)                  1.3910         0.622600   
      7. B(C   6,C   5)                  1.4936         0.426975   
      8. B(C   7,C   3)                  1.5013         0.415178   
      9. B(C   8,C   0)                  1.5038         0.411286   
     10. B(C   9,C   8)                  1.5983         0.290710   
     11. B(C  10,C   9)                  1.5933         0.296062   
     12. B(C  11,C   7)                  1.5996         0.289329   
     13. B(C  12,C  11)                  1.5895         0.300192   
     14. B(C  13,C  12)                  1.5836         0.306789   
     15. B(C  13,C  10)                  1.5794         0.311532   
     16. B(C  14,C   6)                  1.5903         0.299315   
     17. B(C  15,C  14)                  1.5868         0.303238   
     18. B(C  15,C  13)                  1.5839         0.306520   
     19. B(H  16,C   1)                  1.0838         0.368346   
     20. B(H  17,C   2)                  1.0839         0.368215   
     21. B(H  18,C   4)                  1.0837         0.368578   
     22. B(H  19,C   6)                  1.1111         0.333233   
     23. B(H  20,C   6)                  1.1122         0.331912   
     24. B(H  21,C   7)                  1.1117         0.332524   
     25. B(H  22,C   7)                  1.1111         0.333260   
     26. B(H  23,C   8)                  1.1110         0.333387   
     27. B(H  24,C   8)                  1.1118         0.332408   
     28. B(H  25,C   9)                  1.1084         0.336537   
     29. B(H  26,C   9)                  1.1110         0.333314   
     30. B(H  27,C  10)                  1.1106         0.333817   
     31. B(H  28,C  10)                  1.1108         0.333617   
     32. B(H  29,C  11)                  1.1112         0.333145   
     33. B(H  30,C  11)                  1.1053         0.340427   
     34. B(H  31,C  12)                  1.1105         0.334000   
     35. B(H  32,C  12)                  1.1103         0.334208   
     36. B(H  33,C  13)                  0.9662         0.567514   
     37. B(H  34,C  14)                  1.1063         0.339196   
     38. B(H  35,C  14)                  1.1112         0.333128   
     39. B(H  36,C  15)                  1.1104         0.334071   
     40. B(H  37,C  15)                  1.1096         0.335083   
     41. A(C   4,C   0,C   8)          117.9613         0.397953   
     42. A(C   1,C   0,C   8)          116.3236         0.400658   
     43. A(C   1,C   0,C   4)          121.0791         0.425013   
     44. A(C   0,C   1,C   5)          118.4093         0.429000   
     45. A(C   0,C   1,H  16)          119.5048         0.351905   
     46. A(C   5,C   1,H  16)          119.6673         0.352716   
     47. A(C   3,C   2,C   5)          118.4477         0.433668   
     48. A(C   5,C   2,H  17)          119.1569         0.354495   
     49. A(C   3,C   2,H  17)          119.8425         0.353687   
     50. A(C   4,C   3,C   7)          118.8001         0.399250   
     51. A(C   2,C   3,C   4)          121.5229         0.428015   
     52. A(C   2,C   3,C   7)          115.3282         0.403465   
     53. A(C   0,C   4,C   3)          117.7488         0.422784   
     54. A(C   3,C   4,H  18)          119.6676         0.350198   
     55. A(C   0,C   4,H  18)          119.7351         0.349661   
     56. A(C   2,C   5,C   6)          116.2981         0.406431   
     57. A(C   1,C   5,C   2)          121.7841         0.432376   
     58. A(C   1,C   5,C   6)          117.7024         0.404279   
     59. A(C   5,C   6,C  14)          107.9244         0.357940   
     60. A(C  14,C   6,H  20)          108.0322         0.308715   
     61. A(C   5,C   6,H  20)          110.4699         0.327110   
     62. A(H  19,C   6,H  20)          107.8283         0.283703   
     63. A(C  14,C   6,H  19)          111.1692         0.308913   
     64. A(C   5,C   6,H  19)          111.3763         0.327324   
     65. A(C  11,C   7,H  21)          108.3798         0.307125   
     66. A(C  11,C   7,H  22)          110.5336         0.307234   
     67. A(H  21,C   7,H  22)          108.0664         0.283787   
     68. A(C   3,C   7,H  22)          110.5307         0.325822   
     69. A(C   3,C   7,H  21)          110.5891         0.325703   
     70. A(C   3,C   7,C  11)          108.7188         0.354196   
     71. A(C   0,C   8,C   9)          109.4355         0.353916   
     72. A(H  23,C   8,H  24)          107.8006         0.283789   
     73. A(C   9,C   8,H  24)          108.1003         0.307343   
     74. A(C   9,C   8,H  23)          110.5560         0.307488   
     75. A(C   0,C   8,H  23)          110.5879         0.325338   
     76. A(C   0,C   8,H  24)          110.3159         0.325181   
     77. A(C   8,C   9,C  10)          118.8927         0.334921   
     78. A(H  25,C   9,H  26)          106.1512         0.284324   
     79. A(C  10,C   9,H  26)          107.0807         0.308381   
     80. A(C   8,C   9,H  26)          105.6252         0.307477   
     81. A(C  10,C   9,H  25)          108.2644         0.308860   
     82. A(C   8,C   9,H  25)          110.0648         0.307954   
     83. A(C  13,C  10,H  28)          110.1866         0.310971   
     84. A(C   9,C  10,H  28)          104.0290         0.308426   
     85. A(C  13,C  10,H  27)          107.6476         0.311001   
     86. A(C   9,C  10,H  27)          110.6086         0.308456   
     87. A(C   9,C  10,C  13)          116.8452         0.338802   
     88. A(H  27,C  10,H  28)          107.1297         0.284006   
     89. A(H  29,C  11,H  30)          105.5306         0.284810   
     90. A(C   7,C  11,H  30)          110.6789         0.308288   
     91. A(C  12,C  11,H  29)          106.8534         0.309045   
     92. A(C   7,C  11,H  29)          105.6883         0.307217   
     93. A(C   7,C  11,C  12)          118.8783         0.335428   
     94. A(C  12,C  11,H  30)          108.3243         0.310125   
     95. A(C  11,C  12,H  32)          110.7189         0.309204   
     96. A(C  13,C  12,H  31)          108.7514         0.310259   
     97. A(C  11,C  12,H  31)          102.7673         0.309173   
     98. A(C  11,C  12,C  13)          119.6189         0.338718   
     99. A(H  31,C  12,H  32)          106.3977         0.284108   
    100. A(C  13,C  12,H  32)          107.7764         0.310290   
    101. A(C  12,C  13,C  15)          121.4266         0.339900   
    102. A(C  10,C  13,C  15)          115.5042         0.340772   
    103. A(C  10,C  13,C  12)          113.4857         0.340822   
    104. A(C  15,C  13,H  33)          103.2759         0.338416   
    105. A(C  12,C  13,H  33)           99.7634         0.338465   
    106. A(C  10,C  13,H  33)           97.9104         0.339333   
    107. A(C   6,C  14,C  15)          118.1470         0.337896   
    108. A(H  34,C  14,H  35)          106.0160         0.284648   
    109. A(C  15,C  14,H  35)          107.2719         0.309546   
    110. A(C   6,C  14,H  35)          105.1943         0.308897   
    111. A(C  15,C  14,H  34)          108.4313         0.310449   
    112. A(C   6,C  14,H  34)          111.0194         0.309797   
    113. A(C  13,C  15,C  14)          120.1738         0.339239   
    114. A(H  36,C  15,H  37)          106.5532         0.284233   
    115. A(C  14,C  15,H  37)          104.7845         0.309838   
    116. A(C  13,C  15,H  37)          109.1870         0.310377   
    117. A(C  14,C  15,H  36)          109.3382         0.309687   
    118. A(C  13,C  15,H  36)          106.1165         0.310225   
    119. D(C   5,C   1,C   0,C   8)   -148.5542         0.024471   
    120. D(H  16,C   1,C   0,C   8)     13.7485         0.024471   
    121. D(H  16,C   1,C   0,C   4)    169.1161         0.024471   
    122. D(C   5,C   1,C   0,C   4)      6.8134         0.024471   
    123. D(C   7,C   3,C   2,H  17)    -14.8070         0.026081   
    124. D(C   4,C   3,C   2,H  17)   -171.0919         0.026081   
    125. D(C   4,C   3,C   2,C   5)     -9.3543         0.026081   
    126. D(C   7,C   3,C   2,C   5)    146.9306         0.026081   
    127. D(C   0,C   4,C   3,C   2)      8.4314         0.023006   
    128. D(H  18,C   4,C   3,C   2)    169.2845         0.023006   
    129. D(H  18,C   4,C   0,C   1)   -167.9622         0.022573   
    130. D(C   3,C   4,C   0,C   8)    147.8568         0.022573   
    131. D(C   0,C   4,C   3,C   7)   -147.0593         0.023006   
    132. D(H  18,C   4,C   0,C   8)    -12.9830         0.022573   
    133. D(H  18,C   4,C   3,C   7)     13.7938         0.023006   
    134. D(C   3,C   4,C   0,C   1)     -7.1225         0.022573   
    135. D(C   1,C   5,C   2,C   3)      9.0041         0.026837   
    136. D(C   6,C   5,C   2,C   3)   -147.3797         0.026837   
    137. D(C   6,C   5,C   2,H  17)     14.4855         0.026837   
    138. D(C   6,C   5,C   1,C   0)    148.2935         0.025182   
    139. D(C   2,C   5,C   1,H  16)   -170.0483         0.025182   
    140. D(C   1,C   5,C   2,H  17)    170.8693         0.026837   
    141. D(C   2,C   5,C   1,C   0)     -7.7750         0.025182   
    142. D(C   6,C   5,C   1,H  16)    -13.9797         0.025182   
    143. D(H  20,C   6,C   5,C   2)    177.4355         0.013469   
    144. D(H  19,C   6,C   5,C   2)    -62.7592         0.013469   
    145. D(H  19,C   6,C   5,C   1)    139.8609         0.013469   
    146. D(H  20,C   6,C   5,C   1)     20.0556         0.013469   
    147. D(C  14,C   6,C   5,C   2)     59.5299         0.013469   
    148. D(C  14,C   6,C   5,C   1)    -97.8499         0.013469   
    149. D(C  11,C   7,C   3,C   2)    -55.2628         0.012755   
    150. D(H  22,C   7,C   3,C   4)   -136.8031         0.012755   
    151. D(H  22,C   7,C   3,C   2)     66.2280         0.012755   
    152. D(H  21,C   7,C   3,C   4)    -17.1710         0.012755   
    153. D(H  21,C   7,C   3,C   2)   -174.1398         0.012755   
    154. D(C  11,C   7,C   3,C   4)    101.7061         0.012755   
    155. D(H  24,C   8,C   0,C   4)     19.7875         0.012525   
    156. D(H  24,C   8,C   0,C   1)    175.9501         0.012525   
    157. D(H  23,C   8,C   0,C   4)    138.9503         0.012525   
    158. D(C   9,C   8,C   0,C   4)    -99.0250         0.012525   
    159. D(H  23,C   8,C   0,C   1)    -64.8871         0.012525   
    160. D(C   9,C   8,C   0,C   1)     57.1376         0.012525   
    161. D(H  26,C   9,C   8,H  24)     56.3149         0.007107   
    162. D(H  26,C   9,C   8,H  23)    -61.4641         0.007107   
    163. D(H  26,C   9,C   8,C   0)    176.4921         0.007107   
    164. D(H  25,C   9,C   8,H  24)    170.4987         0.007107   
    165. D(C  10,C   9,C   8,C   0)     56.3137         0.007107   
    166. D(C  10,C   9,C   8,H  23)    178.3576         0.007107   
    167. D(H  25,C   9,C   8,C   0)    -69.3241         0.007107   
    168. D(H  25,C   9,C   8,H  23)     52.7198         0.007107   
    169. D(C  10,C   9,C   8,H  24)    -63.8635         0.007107   
    170. D(H  28,C  10,C   9,H  26)    -66.5758         0.007331   
    171. D(H  27,C  10,C   9,H  26)     48.1520         0.007331   
    172. D(H  27,C  10,C   9,H  25)    -65.9183         0.007331   
    173. D(H  28,C  10,C   9,C   8)     52.8570         0.007331   
    174. D(H  27,C  10,C   9,C   8)    167.5848         0.007331   
    175. D(C  13,C  10,C   9,H  26)    171.7483         0.007331   
    176. D(C  13,C  10,C   9,H  25)     57.6780         0.007331   
    177. D(C  13,C  10,C   9,C   8)    -68.8189         0.007331   
    178. D(H  28,C  10,C   9,H  25)    179.3539         0.007331   
    179. D(C  12,C  11,C   7,H  22)   -179.4895         0.007050   
    180. D(C  12,C  11,C   7,H  21)     62.2546         0.007050   
    181. D(C  12,C  11,C   7,C   3)    -58.0005         0.007050   
    182. D(H  30,C  11,C   7,H  22)    -53.1944         0.007050   
    183. D(H  30,C  11,C   7,H  21)   -171.4504         0.007050   
    184. D(H  30,C  11,C   7,C   3)     68.2946         0.007050   
    185. D(H  29,C  11,C   7,H  22)     60.5888         0.007050   
    186. D(H  29,C  11,C   7,H  21)    -57.6671         0.007050   
    187. D(H  29,C  11,C   7,C   3)   -177.9222         0.007050   
    188. D(H  32,C  12,C  11,H  30)     63.9440         0.007507   
    189. D(H  32,C  12,C  11,H  29)    -49.3246         0.007507   
    190. D(H  32,C  12,C  11,C   7)   -168.6482         0.007507   
    191. D(H  31,C  12,C  11,H  30)    177.2214         0.007507   
    192. D(H  31,C  12,C  11,H  29)     63.9527         0.007507   
    193. D(H  31,C  12,C  11,C   7)    -55.3709         0.007507   
    194. D(C  13,C  12,C  11,H  30)    -62.2495         0.007507   
    195. D(C  13,C  12,C  11,H  29)   -175.5181         0.007507   
    196. D(C  13,C  12,C  11,C   7)     65.1583         0.007507   
    197. D(H  33,C  13,C  12,H  32)   -161.7566         0.007795   
    198. D(H  33,C  13,C  12,C  11)    -34.1933         0.007795   
    199. D(C  15,C  13,C  12,H  32)    -49.5333         0.007795   
    200. D(C  15,C  13,C  12,H  31)   -164.4889         0.007795   
    201. D(C  10,C  13,C  12,H  32)     95.1213         0.007795   
    202. D(C  10,C  13,C  12,H  31)    -19.8343         0.007795   
    203. D(C  10,C  13,C  12,C  11)   -137.3155         0.007795   
    204. D(H  33,C  13,C  10,H  28)    -79.2379         0.008007   
    205. D(H  33,C  13,C  10,H  27)    164.2570         0.008007   
    206. D(H  33,C  13,C  10,C   9)     39.1578         0.008007   
    207. D(C  15,C  13,C  10,H  28)    171.9076         0.008007   
    208. D(C  15,C  13,C  12,C  11)     78.0299         0.007795   
    209. D(C  15,C  13,C  10,H  27)     55.4026         0.008007   
    210. D(C  15,C  13,C  10,C   9)    -69.6967         0.008007   
    211. D(C  12,C  13,C  10,H  28)     25.0649         0.008007   
    212. D(H  33,C  13,C  12,H  31)     83.2878         0.007795   
    213. D(C  12,C  13,C  10,H  27)    -91.4401         0.008007   
    214. D(C  12,C  13,C  10,C   9)    143.4606         0.008007   
    215. D(H  35,C  14,C   6,H  20)     54.7580         0.007470   
    216. D(H  35,C  14,C   6,H  19)    -63.3638         0.007470   
    217. D(H  35,C  14,C   6,C   5)    174.2197         0.007470   
    218. D(H  34,C  14,C   6,H  20)    169.0029         0.007470   
    219. D(H  34,C  14,C   6,H  19)     50.8811         0.007470   
    220. D(H  34,C  14,C   6,C   5)    -71.5353         0.007470   
    221. D(C  15,C  14,C   6,H  20)    -64.8607         0.007470   
    222. D(C  15,C  14,C   6,H  19)    177.0175         0.007470   
    223. D(C  15,C  14,C   6,C   5)     54.6010         0.007470   
    224. D(H  37,C  15,C  14,H  34)    177.2388         0.007639   
    225. D(H  37,C  15,C  14,C   6)     49.8599         0.007639   
    226. D(H  36,C  15,C  14,H  35)     45.2142         0.007639   
    227. D(H  36,C  15,C  14,C   6)    163.7449         0.007639   
    228. D(C  13,C  15,C  14,H  35)    168.1936         0.007639   
    229. D(C  13,C  15,C  14,H  34)     54.1031         0.007639   
    230. D(C  13,C  15,C  14,C   6)    -73.2758         0.007639   
    231. D(H  37,C  15,C  13,H  33)    -80.1811         0.007783   
    232. D(H  37,C  15,C  13,C  12)    169.4318         0.007783   
    233. D(H  37,C  15,C  13,C  10)     25.4375         0.007783   
    234. D(H  36,C  15,C  13,H  33)    165.3278         0.007783   
    235. D(H  36,C  15,C  13,C  12)     54.9407         0.007783   
    236. D(H  36,C  15,C  14,H  34)    -68.8762         0.007639   
    237. D(H  36,C  15,C  13,C  10)    -89.0536         0.007783   
    238. D(C  14,C  15,C  13,H  33)     40.8068         0.007783   
    239. D(C  14,C  15,C  13,C  12)    -69.5803         0.007783   
    240. D(H  37,C  15,C  14,H  35)    -68.6708         0.007639   
    241. D(C  14,C  15,C  13,C  10)    146.4254         0.007783   
    -----------------------------------------------------------------

Number of atoms                         .... 38
Number of degrees of freedom            .... 241

         *************************************************************
         *                GEOMETRY OPTIMIZATION CYCLE   1            *
         *************************************************************
---------------------------------
CARTESIAN COORDINATES (ANGSTROEM)
---------------------------------
  C     -3.231090   -2.680760   -3.329810
  C     -2.774330   -1.360500   -3.457300
  C     -2.072060   -1.395260   -1.123180
  C     -2.508330   -2.716100   -1.023050
  C     -3.175780   -3.355310   -2.089080
  C     -2.128500   -0.771150   -2.364980
  C     -1.061590    0.234780   -2.649130
  C     -1.779140   -3.558810   -0.017120
  C     -3.231160   -3.510420   -4.584060
  C     -1.754580   -3.551890   -5.194350
  C     -0.558430   -4.074760   -4.280870
  C     -0.214020   -3.508530   -0.343430
  C      0.286930   -3.980000   -1.776390
  C     -0.138910   -3.160760   -3.062990
  C      0.344100   -0.503160   -2.556280
  C      0.570320   -1.797370   -3.446070
  H     -2.661850   -0.927570   -4.444530
  H     -1.438270   -0.976470   -0.349980
  H     -3.346940   -4.424680   -2.050580
  H     -1.113060    1.090410   -1.942160
  H     -1.171490    0.637690   -3.679930
  H     -2.115670   -4.616700   -0.075970
  H     -1.974390   -3.191930    1.013310
  H     -3.948240   -3.097640   -5.325470
  H     -3.540350   -4.553850   -4.356650
  H     -1.478650   -2.554110   -5.590450
  H     -1.813190   -4.228180   -6.073900
  H      0.349940   -4.257660   -4.893170
  H     -0.910860   -5.062650   -3.915180
  H      0.269970   -4.175010    0.402410
  H      0.193350   -2.499920   -0.147400
  H     -0.126040   -5.007850   -1.854800
  H      1.392230   -4.084300   -1.791400
  H     -1.024300   -2.882470   -2.794410
  H      0.593200   -0.751840   -1.507490
  H      1.091900    0.253200   -2.877940
  H      1.656760   -2.020070   -3.501680
  H      0.256440   -1.497360   -4.467190

----------------------------
CARTESIAN COORDINATES (A.U.)
----------------------------
  NO LB      ZA    FRAG     MASS         X           Y           Z
   0 C     6.0000    0    12.011   -6.105875   -5.065902   -6.292429
   1 C     6.0000    0    12.011   -5.242724   -2.570972   -6.533350
   2 C     6.0000    0    12.011   -3.915626   -2.636659   -2.122503
   3 C     6.0000    0    12.011   -4.740057   -5.132685   -1.933284
   4 C     6.0000    0    12.011   -6.001354   -6.340617   -3.947789
   5 C     6.0000    0    12.011   -4.022282   -1.457262   -4.469165
   6 C     6.0000    0    12.011   -2.006114    0.443670   -5.006130
   7 C     6.0000    0    12.011   -3.362087   -6.725176   -0.032352
   8 C     6.0000    0    12.011   -6.106007   -6.633732   -8.662618
   9 C     6.0000    0    12.011   -3.315676   -6.712099   -9.815899
  10 C     6.0000    0    12.011   -1.055280   -7.700180   -8.089672
  11 C     6.0000    0    12.011   -0.404439   -6.630161   -0.648989
  12 C     6.0000    0    12.011    0.542219   -7.521110   -3.356891
  13 C     6.0000    0    12.011   -0.262502   -5.972971   -5.788212
  14 C     6.0000    0    12.011    0.650255   -0.950835   -4.830669
  15 C     6.0000    0    12.011    1.077749   -3.396537   -6.512129
  16 H     1.0000    0     1.008   -5.030168   -1.752853   -8.398944
  17 H     1.0000    0     1.008   -2.717936   -1.845261   -0.661366
  18 H     1.0000    0     1.008   -6.324800   -8.361433   -3.875035
  19 H     1.0000    0     1.008   -2.103379    2.060576   -3.670151
  20 H     1.0000    0     1.008   -2.213795    1.205059   -6.954060
  21 H     1.0000    0     1.008   -3.998037   -8.724299   -0.143562
  22 H     1.0000    0     1.008   -3.731056   -6.031874    1.914878
  23 H     1.0000    0     1.008   -7.461092   -5.853691  -10.063680
  24 H     1.0000    0     1.008   -6.690292   -8.605529   -8.232875
  25 H     1.0000    0     1.008   -2.794244   -4.826568  -10.564419
  26 H     1.0000    0     1.008   -3.426433   -7.990102  -11.478008
  27 H     1.0000    0     1.008    0.661291   -8.045811   -9.246751
  28 H     1.0000    0     1.008   -1.721276   -9.567022   -7.398618
  29 H     1.0000    0     1.008    0.510169   -7.889626    0.760445
  30 H     1.0000    0     1.008    0.365379   -4.724164   -0.278546
  31 H     1.0000    0     1.008   -0.238181   -9.463465   -3.505064
  32 H     1.0000    0     1.008    2.630933   -7.718208   -3.385255
  33 H     1.0000    0     1.008   -1.935646   -5.447079   -5.280670
  34 H     1.0000    0     1.008    1.120986   -1.420772   -2.848743
  35 H     1.0000    0     1.008    2.063392    0.478479   -5.438518
  36 H     1.0000    0     1.008    3.130823   -3.817379   -6.617216
  37 H     1.0000    0     1.008    0.484601   -2.829600   -8.441766

--------------------------------
INTERNAL COORDINATES (ANGSTROEM)
--------------------------------
 C      0   0   0     0.000000000000     0.00000000     0.00000000
 C      1   0   0     1.402843492803     0.00000000     0.00000000
 C      2   1   0     2.437725904383    89.61966674     0.00000000
 C      3   2   1     1.394623904642    89.54914877     1.07562628
 C      4   3   2     1.410850412872   121.52287808   355.02498947
 C      3   2   1     1.390958664267    29.20148249   173.16593315
 C      6   3   2     1.493630923455   116.29805263   203.61619874
 C      4   3   2     1.501257261465   115.32817054   151.30991953
 C      1   2   3     1.503821393318   116.32363336   207.68344160
 C      9   1   2     1.598268482264   109.43554219    57.13755618
 C     10   9   1     1.593302723841   118.89270016    56.31371882
 C      8   4   3     1.599564599790   108.71881294   304.73721432
 C     12   8   4     1.589531133699   118.87830758   301.99953099
 C     11  10   9     1.579438104137   116.84518252   291.18108505
 C      7   6   3     1.590327306626   107.92439042    59.52994850
 C     14  11  10     1.583852825044   115.50415341   290.30330840
 H      2   1   3     1.083837260939   119.50480964   166.06502812
 H      3   2   1     1.083934070043   147.77360209   158.10354716
 H      5   4   3     1.083665166230   119.66760716   169.28453446
 H      7   6   3     1.111106852962   111.37630706   297.24079327
 H      7   6   3     1.112188436417   110.46993742   177.43548852
 H      8   4   3     1.111686563515   110.58910685   185.86016458
 H      8   4   3     1.111084822055   110.53074456    66.22798814
 H      9   1   2     1.110981477298   110.58785759   295.11285097
 H      9   1   2     1.111782320915   110.31591067   175.95007299
 H     10   9   1     1.108421175953   110.06483170   290.67594934
 H     10   9   1     1.111040727741   105.62519042   176.49208804
 H     11  10   9     1.110630342148   110.60855595   167.58479929
 H     11  10   9     1.110793740125   104.02898255    52.85698385
 H     12   8   4     1.111179200714   105.68830548   182.07782045
 H     12   8   4     1.105292816361   110.67887827    68.29458573
 H     13  12   8     1.110480964042   102.76726447   304.62909726
 H     13  12   8     1.110311613962   110.71888806   191.35175657
 H     14  11  10     0.966175963580    97.91038633    39.15775535
 H     15   7   6     1.106278905385   111.01937525   288.46467339
 H     15   7   6     1.111193252859   105.19429074   174.21973111
 H     16  14  11     1.110423178658   106.11646899   270.94638213
 H     16  14  11     1.109600247341   109.18700729    25.43746149

---------------------------
INTERNAL COORDINATES (A.U.)
---------------------------
 C      0   0   0     0.000000000000     0.00000000     0.00000000
 C      1   0   0     2.650990010151     0.00000000     0.00000000
 C      2   1   0     4.606634348849    89.61966674     0.00000000
 C      3   2   1     2.635457239594    89.54914877     1.07562628
 C      4   3   2     2.666120896257   121.52287808   355.02498947
 C      3   2   1     2.628530939070    29.20148249   173.16593315
 C      6   3   2     2.822553390485   116.29805263   203.61619874
 C      4   3   2     2.836965080729   115.32817054   151.30991953
 C      1   2   3     2.841810587702   116.32363336   207.68344160
 C      9   1   2     3.020289719958   109.43554219    57.13755618
 C     10   9   1     3.010905796491   118.89270016    56.31371882
 C      8   4   3     3.022739027118   108.71881294   304.73721432
 C     12   8   4     3.003778524033   118.87830758   301.99953099
 C     11  10   9     2.984705462299   116.84518252   291.18108505
 C      7   6   3     3.005283072820   107.92439042    59.52994850
 C     14  11  10     2.993048075771   115.50415341   290.30330840
 H      2   1   3     2.048155596914   119.50480964   166.06502812
 H      3   2   1     2.048338539608   147.77360209   158.10354716
 H      5   4   3     2.047830385045   119.66760716   169.28453446
 H      7   6   3     2.099687657622   111.37630706   297.24079327
 H      7   6   3     2.101731554142   110.46993742   177.43548852
 H      8   4   3     2.100783151804   110.58910685   185.86016458
 H      8   4   3     2.099646025240   110.53074456    66.22798814
 H      9   1   2     2.099450731953   110.58785759   295.11285097
 H      9   1   2     2.100964107065   110.31591067   175.95007299
 H     10   9   1     2.094612463589   110.06483170   290.67594934
 H     10   9   1     2.099562699064   105.62519042   176.49208804
 H     11  10   9     2.098787182683   110.60855595   167.58479929
 H     11  10   9     2.099095960110   104.02898255    52.85698385
 H     12   8   4     2.099824375059   105.68830548   182.07782045
 H     12   8   4     2.088700720713   110.67887827    68.29458573
 H     13  12   8     2.098504898973   102.76726447   304.62909726
 H     13  12   8     2.098184873701   110.71888806   191.35175657
 H     14  11  10     1.825807968344    97.91038633    39.15775535
 H     15   7   6     2.090564158912   111.01937525   288.46467339
 H     15   7   6     2.099850929765   105.19429074   174.21973111
 H     16  14  11     2.098395700421   106.11646899   270.94638213
 H     16  14  11     2.096840585606   109.18700729    25.43746149

---------------------
BASIS SET INFORMATION
---------------------
There are 2 groups of distinct atoms

 Group   1 Type C   : 8s4p1d contracted to 4s2p1d pattern {5111/31/1}
 Group   2 Type H   : 4s contracted to 2s pattern {31}

Atom   0C    basis set group =>   1
Atom   1C    basis set group =>   1
Atom   2C    basis set group =>   1
Atom   3C    basis set group =>   1
Atom   4C    basis set group =>   1
Atom   5C    basis set group =>   1
Atom   6C    basis set group =>   1
Atom   7C    basis set group =>   1
Atom   8C    basis set group =>   1
Atom   9C    basis set group =>   1
Atom  10C    basis set group =>   1
Atom  11C    basis set group =>   1
Atom  12C    basis set group =>   1
Atom  13C    basis set group =>   1
Atom  14C    basis set group =>   1
Atom  15C    basis set group =>   1
Atom  16H    basis set group =>   2
Atom  17H    basis set group =>   2
Atom  18H    basis set group =>   2
Atom  19H    basis set group =>   2
Atom  20H    basis set group =>   2
Atom  21H    basis set group =>   2
Atom  22H    basis set group =>   2
Atom  23H    basis set group =>   2
Atom  24H    basis set group =>   2
Atom  25H    basis set group =>   2
Atom  26H    basis set group =>   2
Atom  27H    basis set group =>   2
Atom  28H    basis set group =>   2
Atom  29H    basis set group =>   2
Atom  30H    basis set group =>   2
Atom  31H    basis set group =>   2
Atom  32H    basis set group =>   2
Atom  33H    basis set group =>   2
Atom  34H    basis set group =>   2
Atom  35H    basis set group =>   2
Atom  36H    basis set group =>   2
Atom  37H    basis set group =>   2
---------------------------------
AUXILIARY/J BASIS SET INFORMATION
---------------------------------
There are 2 groups of distinct atoms

 Group   1 Type C   : 12s5p4d2f1g contracted to 6s4p3d1f1g pattern {711111/2111/211/2/1}
 Group   2 Type H   : 5s2p1d contracted to 3s1p1d pattern {311/2/1}

Atom   0C    basis set group =>   1
Atom   1C    basis set group =>   1
Atom   2C    basis set group =>   1
Atom   3C    basis set group =>   1
Atom   4C    basis set group =>   1
Atom   5C    basis set group =>   1
Atom   6C    basis set group =>   1
Atom   7C    basis set group =>   1
Atom   8C    basis set group =>   1
Atom   9C    basis set group =>   1
Atom  10C    basis set group =>   1
Atom  11C    basis set group =>   1
Atom  12C    basis set group =>   1
Atom  13C    basis set group =>   1
Atom  14C    basis set group =>   1
Atom  15C    basis set group =>   1
Atom  16H    basis set group =>   2
Atom  17H    basis set group =>   2
Atom  18H    basis set group =>   2
Atom  19H    basis set group =>   2
Atom  20H    basis set group =>   2
Atom  21H    basis set group =>   2
Atom  22H    basis set group =>   2
Atom  23H    basis set group =>   2
Atom  24H    basis set group =>   2
Atom  25H    basis set group =>   2
Atom  26H    basis set group =>   2
Atom  27H    basis set group =>   2
Atom  28H    basis set group =>   2
Atom  29H    basis set group =>   2
Atom  30H    basis set group =>   2
Atom  31H    basis set group =>   2
Atom  32H    basis set group =>   2
Atom  33H    basis set group =>   2
Atom  34H    basis set group =>   2
Atom  35H    basis set group =>   2
Atom  36H    basis set group =>   2
Atom  37H    basis set group =>   2
------------------------------------------------------------------------------
                           ORCA GTO INTEGRAL CALCULATION
                           -- RI-GTO INTEGRALS CHOSEN --
------------------------------------------------------------------------------
------------------------------------------------------------------------------
                   ___                                                        
                  /   \      - P O W E R E D   B Y -                         
                 /     \                                                     
                 |  |  |   _    _      __       _____    __    __             
                 |  |  |  | |  | |    /  \     |  _  \  |  |  /  |          
                  \  \/   | |  | |   /    \    | | | |  |  | /  /          
                 / \  \   | |__| |  /  /\  \   | |_| |  |  |/  /          
                |  |  |   |  __  | /  /__\  \  |    /   |      \           
                |  |  |   | |  | | |   __   |  |    \   |  |\   \          
                \     /   | |  | | |  |  |  |  | |\  \  |  | \   \       
                 \___/    |_|  |_| |__|  |__|  |_| \__\ |__|  \__/        
                                                                              
                      - O R C A' S   B I G   F R I E N D -                    
                                      &                                       
                       - I N T E G R A L  F E E D E R -                       
                                                                              
 v1 FN, 2020, v2 2021                                                         
------------------------------------------------------------------------------


Reading SHARK input file H.SHARKINP.tmp ... ok
----------------------
SHARK INTEGRAL PACKAGE
----------------------

Number of atoms                             ...     38
Number of basis functions                   ...    284
Number of shells                            ...    156
Maximum angular momentum                    ...      2
Integral batch strategy                     ... SHARK/LIBINT Hybrid
RI-J (if used) integral strategy            ... SPLIT-RIJ (Revised 2003 algorithm where possible)
Printlevel                                  ...      1
Contraction scheme used                     ... SEGMENTED contraction
Coulomb Range Separation                    ... NOT USED
Exchange Range Separation                   ... NOT USED
Finite Nucleus Model                        ... NOT USED
Auxiliary Coulomb fitting basis             ... AVAILABLE
   # of basis functions in Aux-J            ...   1026
   # of shells in Aux-J                     ...    350
   Maximum angular momentum in Aux-J        ...      4
Auxiliary J/K fitting basis                 ... NOT available
Auxiliary Correlation fitting basis         ... NOT available
Auxiliary 'external' fitting basis          ... NOT available
Integral threshold                          ...     2.500000e-11
Primitive cut-off                           ...     2.500000e-12
Primitive pair pre-selection threshold      ...     2.500000e-12

Calculating pre-screening integrals         ... done (  0.1 sec) Dimension = 156
Organizing shell pair data                  ... done (  0.0 sec)
Shell pair information
Total number of shell pairs                 ...     12246
Shell pairs after pre-screening             ...     10549
Total number of primitive shell pairs       ...     44230
Primitive shell pairs kept                  ...     24936
          la=0 lb=0:   4714 shell pairs
          la=1 lb=0:   3253 shell pairs
          la=1 lb=1:    528 shell pairs
          la=2 lb=0:   1410 shell pairs
          la=2 lb=1:    512 shell pairs
          la=2 lb=2:    132 shell pairs

Calculating one electron integrals          ... done (  0.1 sec)
Calculating RI/J V-Matrix + Cholesky decomp.... done (  0.0 sec)
Calculating Nuclear repulsion               ... done (  0.0 sec) ENN=   1186.127380584045 Eh

SHARK setup successfully completed in   0.3 seconds

Maximum memory used throughout the entire GTOINT-calculation: 57.2 MB
-------------------------------------------------------------------------------
                                 ORCA SCF
-------------------------------------------------------------------------------

------------
SCF SETTINGS
------------
Hamiltonian:
 Density Functional     Method          .... DFT(GTOs)
 Exchange Functional    Exchange        .... PBE
   PBE kappa parameter   XKappa         ....  1.024500
   PBE mue parameter    XMuePBE         ....  0.123457
 Correlation Functional Correlation     .... PBE
   PBE beta parameter  CBetaPBE         ....  0.030000
 LDA part of GGA corr.  LDAOpt          .... PW91-LDA
 Gradients option       PostSCFGGA      .... off
 Hybrid DFT is turned on
   Fraction HF Exchange ScalHFX         ....  0.420000
   Scaling of DF-GGA-X  ScalDFX         ....  0.580000
   Scaling of DF-GGA-C  ScalDFC         ....  1.000000
   Scaling of DF-LDA-C  ScalLDAC        ....  1.000000
   Perturbative correction              ....  0.000000
   Density functional embedding theory  .... OFF
 RI-approximation to the Coulomb term is turned on
   Number of AuxJ basis functions       .... 1026
   RIJ-ON(X) (HFX calculated with O(N)) .... on
   Number of AuxJ basis functions       .... 1026
   RIJ-COSX (HFX calculated with COS-X)).... on


General Settings:
 Integral files         IntName         .... H
 Hartree-Fock type      HFTyp           .... RHF
 Total Charge           Charge          ....    0
 Multiplicity           Mult            ....    1
 Number of Electrons    NEL             ....  118
 Basis Dimension        Dim             ....  284
 Nuclear Repulsion      ENuc            ....   1186.1273805840 Eh

Convergence Acceleration:
 DIIS                   CNVDIIS         .... on
   Start iteration      DIISMaxIt       ....    12
   Startup error        DIISStart       ....  0.200000
   # of expansion vecs  DIISMaxEq       ....     5
   Bias factor          DIISBfac        ....   1.050
   Max. coefficient     DIISMaxC        ....  10.000
 Trust-Rad. Augm. Hess. CNVTRAH         .... auto
   Auto Start mean grad. ratio tolernc. ....  1.125000
   Auto Start start iteration           ....    20
   Auto Start num. interpolation iter.  ....    10
   Max. Number of Micro iterations      ....    16
   Max. Number of Macro iterations      .... Maxiter - #DIIS iter
   Number of Davidson start vectors     ....     2
   Converg. threshold I  (grad. norm)   ....   1.000e-05
   Converg. threshold II (energy diff.) ....   1.000e-08
   Grad. Scal. Fac. for Micro threshold ....   0.100
   Minimum threshold for Micro iter.    ....   0.010
   NR start threshold (gradient norm)   ....   0.001
   Initial trust radius                 ....   0.400
   Minimum AH scaling param. (alpha)    ....   1.000
   Maximum AH scaling param. (alpha)    .... 1000.000
   Orbital update algorithm             .... Taylor
   White noise on init. David. guess    .... on
   Maximum white noise                  ....   0.010
   Quad. conv. algorithm                .... NR
   COSX micro iterations for RIJONX calc.... off
 SOSCF                  CNVSOSCF        .... on
   Start iteration      SOSCFMaxIt      ....   150
   Startup grad/error   SOSCFStart      ....  0.003300
 Level Shifting         CNVShift        .... on
   Level shift para.    LevelShift      ....    0.2500
   Turn off err/grad.   ShiftErr        ....    0.0010
 Zerner damping         CNVZerner       .... off
 Static damping         CNVDamp         .... on
   Fraction old density DampFac         ....    0.7000
   Max. Damping (<1)    DampMax         ....    0.9800
   Min. Damping (>=0)   DampMin         ....    0.0000
   Turn off err/grad.   DampErr         ....    0.1000
 Fernandez-Rico         CNVRico         .... off

SCF Procedure:
 Maximum # iterations   MaxIter         ....   125
 SCF integral mode      SCFMode         .... Direct
   Integral package                     .... SHARK and LIBINT hybrid scheme
 Reset frequency        DirectResetFreq ....    20
 Integral Threshold     Thresh          ....  2.500e-11 Eh
 Primitive CutOff       TCut            ....  2.500e-12 Eh

Convergence Tolerance:
 Convergence Check Mode ConvCheckMode   .... Total+1el-Energy
 Convergence forced     ConvForced      .... 0
 Energy Change          TolE            ....  1.000e-08 Eh
 1-El. energy change                    ....  1.000e-05 Eh
 Orbital Gradient       TolG            ....  1.000e-05
 Orbital Rotation angle TolX            ....  1.000e-05
 DIIS Error             TolErr          ....  5.000e-07


Diagonalization of the overlap matrix:
Smallest eigenvalue                        ... 6.539e-04
Time for diagonalization                   ...    0.009 sec
Threshold for overlap eigenvalues          ... 1.000e-08
Number of eigenvalues below threshold      ... 0
Time for construction of square roots      ...    0.003 sec
Total time needed                          ...    0.013 sec

--------------------------------
INITIAL GUESS: MINIMAL BASIS EHT
--------------------------------
The minimal basis has 102 functions
EHT matrix was diagonalized
Basis set overlap was calculated now projecting the orbitals
Using GuessMode=FMatrix for the initial guess
C*T matrix was formed
Effective Fockian was calculated
Effective Fockian was diagonalized
Initial density was built
                      ------------------
                      INITIAL GUESS DONE
                      ------------------
-------------------
DFT GRID GENERATION
-------------------

General Integration Accuracy     IntAcc      ... 4.159
Radial Grid Type                 RadialGrid  ... OptM3 with GC (2021)
Angular Grid (max. ang.)         AngularGrid ... 3 (Lebedev-194)
Angular grid pruning method      GridPruning ... 4 (adaptive)
Weight generation scheme         WeightScheme... Becke
Basis function cutoff            BFCut       ... 1.0000e-11
Integration weight cutoff        WCut        ... 1.0000e-14
Angular grids for H and He will be reduced by one unit
Partially contracted basis set               ... off
Rotationally invariant grid construction     ... off

Total number of grid points                  ...    80780
Total number of batches                      ...     1279
Average number of points per batch           ...       63
Average number of grid points per atom       ...     2126
Time for grid setup =    1.321 sec

--------------------
COSX GRID GENERATION
--------------------

GRIDX 1
-------
General Integration Accuracy     IntAcc      ... 3.816
Radial Grid Type                 RadialGrid  ... OptM3 with GC (2021)
Angular Grid (max. ang.)         AngularGrid ... 1 (Lebedev-50)
Angular grid pruning method      GridPruning ... 4 (adaptive)
Weight generation scheme         WeightScheme... Becke
Basis function cutoff            BFCut       ... 1.0000e-11
Integration weight cutoff        WCut        ... 1.0000e-14
Angular grids for H and He will be reduced by one unit
Partially contracted basis set               ... on
Rotationally invariant grid construction     ... off

Total number of grid points                  ...    20829
Total number of batches                      ...      347
Average number of points per batch           ...       60
Average number of grid points per atom       ...      548
UseSFitting                                  ... on

GRIDX 2
-------
General Integration Accuracy     IntAcc      ... 4.020
Radial Grid Type                 RadialGrid  ... OptM3 with GC (2021)
Angular Grid (max. ang.)         AngularGrid ... 2 (Lebedev-110)
Angular grid pruning method      GridPruning ... 4 (adaptive)
Weight generation scheme         WeightScheme... Becke
Basis function cutoff            BFCut       ... 1.0000e-11
Integration weight cutoff        WCut        ... 1.0000e-14
Angular grids for H and He will be reduced by one unit
Partially contracted basis set               ... on
Rotationally invariant grid construction     ... off

Total number of grid points                  ...    43470
Total number of batches                      ...      696
Average number of points per batch           ...       62
Average number of grid points per atom       ...     1144
UseSFitting                                  ... on

GRIDX 3
-------
General Integration Accuracy     IntAcc      ... 4.338
Radial Grid Type                 RadialGrid  ... OptM3 with GC (2021)
Angular Grid (max. ang.)         AngularGrid ... 3 (Lebedev-194)
Angular grid pruning method      GridPruning ... 4 (adaptive)
Weight generation scheme         WeightScheme... Becke
Basis function cutoff            BFCut       ... 1.0000e-11
Integration weight cutoff        WCut        ... 1.0000e-14
Angular grids for H and He will be reduced by one unit
Partially contracted basis set               ... on
Rotationally invariant grid construction     ... off

Total number of grid points                  ...    94358
Total number of batches                      ...     1494
Average number of points per batch           ...       63
Average number of grid points per atom       ...     2483
UseSFitting                                  ... on

Time for X-Grid setup             =    3.375 sec

--------------
SCF ITERATIONS
--------------
ITER       Energy         Delta-E        Max-DP      RMS-DP      [F,P]     Damp
               ***  Starting incremental Fock matrix formation  ***
  0   -620.3125495795   0.000000000000 0.07843280  0.00226385  0.4263037 0.7000
  1   -620.6709388888  -0.358389309319 0.05592182  0.00169328  0.2997092 0.7000
  2   -620.9276880267  -0.256749137896 0.04101071  0.00126127  0.2094923 0.7000
                               ***Turning on DIIS***
  3   -621.1102645414  -0.182576514683 0.03038420  0.00093785  0.1465842 0.7000
  4   -621.2397939746  -0.129529433215 0.02453359  0.00073915  0.1026935 0.7000
  5   -621.3314779589  -0.091683984314 0.06000614  0.00185049  0.0720316 0.0000
                      *** Initiating the SOSCF procedure ***
                           *** Shutting down DIIS ***
                      *** Re-Reading the Fockian *** 
                      *** Removing any level shift *** 
ITER      Energy       Delta-E        Grad      Rot      Max-DP    RMS-DP
  6   -621.54933550  -0.2178575389  0.000699  0.000699  0.002089  0.000082
               *** Restarting incremental Fock matrix formation ***
  7   -621.54940731  -0.0000718159  0.000316  0.000767  0.001384  0.000055
  8   -621.54942041  -0.0000131004  0.000135  0.000412  0.000635  0.000021
  9   -621.54942107  -0.0000006566  0.000121  0.000209  0.000293  0.000009
 10   -621.54942186  -0.0000007898  0.000011  0.000035  0.000027  0.000001
 11   -621.54942187  -0.0000000058  0.000015  0.000022  0.000016  0.000000
                  ***Gradient check signals convergence***
              ***Rediagonalizing the Fockian in SOSCF/NRSCF***

               *****************************************************
               *                     SUCCESS                       *
               *           SCF CONVERGED AFTER  12 CYCLES          *
               *****************************************************

Old exchange energy                            =    -38.056707856 Eh
New exchange energy                            =    -38.056718487 Eh
Exchange energy change after final integration =     -0.000010631 Eh
Total energy after final integration           =   -621.549432506 Eh
Final COS-X integration done in                =    33.921 sec

----------------
TOTAL SCF ENERGY
----------------

Total Energy       :         -621.54943251 Eh          -16913.21991 eV

Components:
Nuclear Repulsion  :         1186.12738058 Eh           32276.16691 eV
Electronic Energy  :        -1807.67681309 Eh          -49189.38682 eV
One Electron Energy:        -3195.28053186 Eh          -86948.00362 eV
Two Electron Energy:         1387.60371877 Eh           37758.61680 eV
Max COSX asymmetry :            0.00000490 Eh               0.00013 eV

Virial components:
Potential Energy   :        -1237.04361464 Eh          -33661.66808 eV
Kinetic Energy     :          615.49418214 Eh           16748.44817 eV
Virial Ratio       :            2.00983803


DFT components:
N(Alpha)           :       59.000403097140 electrons
N(Beta)            :       59.000403097140 electrons
N(Total)           :      118.000806194280 electrons
E(X)               :      -50.477718306227 Eh       
E(C)               :       -5.090518964673 Eh       
E(XC)              :      -55.568237270900 Eh       
DFET-embed. en.    :        0.000000000000 Eh       

---------------
SCF CONVERGENCE
---------------

  Last Energy change         ...   -8.7936e-09  Tolerance :   1.0000e-08
  Last MAX-Density change    ...    1.6653e-15  Tolerance :   1.0000e-07
  Last RMS-Density change    ...    3.0566e-17  Tolerance :   5.0000e-09
  Last Orbital Gradient      ...    2.0283e-06  Tolerance :   1.0000e-05
  Last Orbital Rotation      ...    5.8675e-06  Tolerance :   1.0000e-05

             **** THE GBW FILE WAS UPDATED (H.gbw) ****
             **** DENSITY H.scfp WAS UPDATED ****
             **** ENERGY FILE WAS UPDATED (H.en.tmp) ****
             **** THE GBW FILE WAS UPDATED (H.gbw) ****
             **** DENSITY H.scfp WAS UPDATED ****
----------------
ORBITAL ENERGIES
----------------

  NO   OCC          E(Eh)            E(eV) 
   0   2.0000     -10.454356      -284.4775 
   1   2.0000     -10.453488      -284.4539 
   2   2.0000     -10.451290      -284.3941 
   3   2.0000     -10.448243      -284.3111 
   4   2.0000     -10.447773      -284.2984 
   5   2.0000     -10.447545      -284.2922 
   6   2.0000     -10.447308      -284.2857 
   7   2.0000     -10.446947      -284.2759 
   8   2.0000     -10.446616      -284.2669 
   9   2.0000     -10.442324      -284.1501 
  10   2.0000     -10.440818      -284.1091 
  11   2.0000     -10.440323      -284.0956 
  12   2.0000     -10.438972      -284.0589 
  13   2.0000     -10.435771      -283.9718 
  14   2.0000     -10.433932      -283.9217 
  15   2.0000     -10.420746      -283.5629 
  16   2.0000      -0.966722       -26.3058 
  17   2.0000      -0.892374       -24.2827 
  18   2.0000      -0.891091       -24.2478 
  19   2.0000      -0.888561       -24.1790 
  20   2.0000      -0.815981       -22.2040 
  21   2.0000      -0.814030       -22.1509 
  22   2.0000      -0.810709       -22.0605 
  23   2.0000      -0.752778       -20.4841 
  24   2.0000      -0.749947       -20.4071 
  25   2.0000      -0.701684       -19.0938 
  26   2.0000      -0.674725       -18.3602 
  27   2.0000      -0.671691       -18.2776 
  28   2.0000      -0.627817       -17.0838 
  29   2.0000      -0.620112       -16.8741 
  30   2.0000      -0.608024       -16.5452 
  31   2.0000      -0.563608       -15.3365 
  32   2.0000      -0.542793       -14.7702 
  33   2.0000      -0.528455       -14.3800 
  34   2.0000      -0.512773       -13.9533 
  35   2.0000      -0.501518       -13.6470 
  36   2.0000      -0.486153       -13.2289 
  37   2.0000      -0.483728       -13.1629 
  38   2.0000      -0.473581       -12.8868 
  39   2.0000      -0.466995       -12.7076 
  40   2.0000      -0.458394       -12.4735 
  41   2.0000      -0.446263       -12.1434 
  42   2.0000      -0.442095       -12.0300 
  43   2.0000      -0.439977       -11.9724 
  44   2.0000      -0.424825       -11.5601 
  45   2.0000      -0.410044       -11.1579 
  46   2.0000      -0.403708       -10.9855 
  47   2.0000      -0.400405       -10.8956 
  48   2.0000      -0.397560       -10.8182 
  49   2.0000      -0.390716       -10.6319 
  50   2.0000      -0.387589       -10.5468 
  51   2.0000      -0.381806       -10.3895 
  52   2.0000      -0.377118       -10.2619 
  53   2.0000      -0.360484        -9.8093 
  54   2.0000      -0.348365        -9.4795 
  55   2.0000      -0.333270        -9.0687 
  56   2.0000      -0.314254        -8.5513 
  57   2.0000      -0.268287        -7.3005 
  58   2.0000      -0.265543        -7.2258 
  59   0.0000       0.010117         0.2753 
  60   0.0000       0.017426         0.4742 
  61   0.0000       0.115112         3.1324 
  62   0.0000       0.134766         3.6672 
  63   0.0000       0.142055         3.8655 
  64   0.0000       0.143254         3.8981 
  65   0.0000       0.150011         4.0820 
  66   0.0000       0.154486         4.2038 
  67   0.0000       0.159786         4.3480 
  68   0.0000       0.169083         4.6010 
  69   0.0000       0.177932         4.8418 
  70   0.0000       0.183408         4.9908 
  71   0.0000       0.193792         5.2733 
  72   0.0000       0.195636         5.3235 
  73   0.0000       0.198186         5.3929 
  74   0.0000       0.200820         5.4646 
  75   0.0000       0.210412         5.7256 
  76   0.0000       0.210966         5.7407 
  77   0.0000       0.219472         5.9721 
  78   0.0000       0.222456         6.0533 
  79   0.0000       0.230485         6.2718 
  80   0.0000       0.236407         6.4329 
  81   0.0000       0.246780         6.7152 
  82   0.0000       0.248409         6.7596 
  83   0.0000       0.253388         6.8950 
  84   0.0000       0.259562         7.0630 
  85   0.0000       0.272329         7.4104 
  86   0.0000       0.284236         7.7344 
  87   0.0000       0.289571         7.8796 
  88   0.0000       0.294093         8.0027 
  89   0.0000       0.299573         8.1518 
  90   0.0000       0.311183         8.4677 
  91   0.0000       0.314715         8.5638 
  92   0.0000       0.321984         8.7616 
  93   0.0000       0.326944         8.8966 
  94   0.0000       0.330231         8.9860 
  95   0.0000       0.341202         9.2846 
  96   0.0000       0.375853        10.2275 
  97   0.0000       0.384622        10.4661 
  98   0.0000       0.412394        11.2218 
  99   0.0000       0.421547        11.4709 
 100   0.0000       0.425868        11.5884 
 101   0.0000       0.476663        12.9707 
 102   0.0000       0.491824        13.3832 
 103   0.0000       0.500689        13.6245 
 104   0.0000       0.510968        13.9041 
 105   0.0000       0.524250        14.2656 
 106   0.0000       0.530154        14.4262 
 107   0.0000       0.545612        14.8469 
 108   0.0000       0.567326        15.4377 
 109   0.0000       0.574140        15.6231 
 110   0.0000       0.578154        15.7324 
 111   0.0000       0.583199        15.8697 
 112   0.0000       0.588985        16.0271 
 113   0.0000       0.616198        16.7676 
 114   0.0000       0.620115        16.8742 
 115   0.0000       0.623229        16.9589 
 116   0.0000       0.625483        17.0203 
 117   0.0000       0.630031        17.1440 
 118   0.0000       0.630070        17.1451 
 119   0.0000       0.637663        17.3517 
 120   0.0000       0.651106        17.7175 
 121   0.0000       0.660837        17.9823 
 122   0.0000       0.668909        18.2019 
 123   0.0000       0.675416        18.3790 
 124   0.0000       0.678585        18.4652 
 125   0.0000       0.685877        18.6637 
 126   0.0000       0.698954        19.0195 
 127   0.0000       0.699824        19.0432 
 128   0.0000       0.729533        19.8516 
 129   0.0000       0.738164        20.0865 
 130   0.0000       0.753188        20.4953 
 131   0.0000       0.777369        21.1533 
 132   0.0000       0.804251        21.8848 
 133   0.0000       0.816788        22.2259 
 134   0.0000       0.821211        22.3463 
 135   0.0000       0.834097        22.6969 
 136   0.0000       0.834806        22.7162 
 137   0.0000       0.862613        23.4729 
 138   0.0000       0.872361        23.7382 
 139   0.0000       0.900781        24.5115 
 140   0.0000       0.901645        24.5350 
 141   0.0000       0.919925        25.0324 
 142   0.0000       0.931370        25.3439 
 143   0.0000       0.939684        25.5701 
 144   0.0000       0.956569        26.0296 
 145   0.0000       0.968755        26.3612 
 146   0.0000       0.977109        26.5885 
 147   0.0000       0.994865        27.0717 
 148   0.0000       1.000141        27.2152 
 149   0.0000       1.008780        27.4503 
 150   0.0000       1.015065        27.6213 
 151   0.0000       1.021505        27.7966 
 152   0.0000       1.024309        27.8729 
 153   0.0000       1.034183        28.1415 
 154   0.0000       1.040475        28.3128 
 155   0.0000       1.045622        28.4528 
 156   0.0000       1.048462        28.5301 
 157   0.0000       1.055359        28.7178 
 158   0.0000       1.063202        28.9312 
 159   0.0000       1.069843        29.1119 
 160   0.0000       1.075322        29.2610 
 161   0.0000       1.082238        29.4492 
 162   0.0000       1.090932        29.6858 
 163   0.0000       1.098913        29.9029 
 164   0.0000       1.101803        29.9816 
 165   0.0000       1.109874        30.2012 
 166   0.0000       1.117251        30.4020 
 167   0.0000       1.149651        31.2836 
 168   0.0000       1.157204        31.4891 
 169   0.0000       1.163813        31.6690 
 170   0.0000       1.182570        32.1794 
 171   0.0000       1.197955        32.5980 
 172   0.0000       1.213697        33.0264 
 173   0.0000       1.217806        33.1382 
 174   0.0000       1.237091        33.6630 
 175   0.0000       1.247169        33.9372 
 176   0.0000       1.252352        34.0782 
 177   0.0000       1.296260        35.2730 
 178   0.0000       1.320939        35.9446 
 179   0.0000       1.354036        36.8452 
 180   0.0000       1.405382        38.2424 
 181   0.0000       1.443655        39.2838 
 182   0.0000       1.458570        39.6897 
 183   0.0000       1.478440        40.2304 
 184   0.0000       1.507113        41.0106 
 185   0.0000       1.527035        41.5527 
 186   0.0000       1.551467        42.2176 
 187   0.0000       1.568125        42.6708 
 188   0.0000       1.584013        43.1032 
 189   0.0000       1.592581        43.3363 
 190   0.0000       1.612207        43.8704 
 191   0.0000       1.645492        44.7761 
 192   0.0000       1.660732        45.1908 
 193   0.0000       1.674673        45.5702 
 194   0.0000       1.684336        45.8331 
 195   0.0000       1.694276        46.1036 
 196   0.0000       1.705712        46.4148 
 197   0.0000       1.744884        47.4807 
 198   0.0000       1.760429        47.9037 
 199   0.0000       1.781878        48.4874 
 200   0.0000       1.795260        48.8515 
 201   0.0000       1.810905        49.2772 
 202   0.0000       1.828930        49.7677 
 203   0.0000       1.880433        51.1692 
 204   0.0000       1.889432        51.4141 
 205   0.0000       1.893241        51.5177 
 206   0.0000       1.904885        51.8346 
 207   0.0000       1.911530        52.0154 
 208   0.0000       1.925364        52.3918 
 209   0.0000       1.955620        53.2151 
 210   0.0000       1.965818        53.4926 
 211   0.0000       1.973527        53.7024 
 212   0.0000       1.997783        54.3624 
 213   0.0000       2.001930        54.4753 
 214   0.0000       2.010566        54.7103 
 215   0.0000       2.013375        54.7867 
 216   0.0000       2.024800        55.0976 
 217   0.0000       2.047964        55.7279 
 218   0.0000       2.051985        55.8373 
 219   0.0000       2.078493        56.5587 
 220   0.0000       2.089339        56.8538 
 221   0.0000       2.116800        57.6011 
 222   0.0000       2.136131        58.1271 
 223   0.0000       2.169697        59.0405 
 224   0.0000       2.170740        59.0688 
 225   0.0000       2.184186        59.4347 
 226   0.0000       2.203463        59.9593 
 227   0.0000       2.225186        60.5504 
 228   0.0000       2.238400        60.9100 
 229   0.0000       2.250600        61.2419 
 230   0.0000       2.262690        61.5709 
 231   0.0000       2.267438        61.7001 
 232   0.0000       2.319222        63.1092 
 233   0.0000       2.343435        63.7681 
 234   0.0000       2.352565        64.0166 
 235   0.0000       2.360288        64.2267 
 236   0.0000       2.371600        64.5345 
 237   0.0000       2.392100        65.0924 
 238   0.0000       2.397379        65.2360 
 239   0.0000       2.413530        65.6755 
 240   0.0000       2.417728        65.7897 
 241   0.0000       2.441722        66.4426 
 242   0.0000       2.442589        66.4662 
 243   0.0000       2.461209        66.9729 
 244   0.0000       2.476158        67.3797 
 245   0.0000       2.495545        67.9072 
 246   0.0000       2.511707        68.3470 
 247   0.0000       2.518269        68.5256 
 248   0.0000       2.525336        68.7179 
 249   0.0000       2.633052        71.6490 
 250   0.0000       2.654666        72.2371 
 251   0.0000       2.673156        72.7403 
 252   0.0000       2.683621        73.0250 
 253   0.0000       2.691061        73.2275 
 254   0.0000       2.708154        73.6926 
 255   0.0000       2.714575        73.8674 
 256   0.0000       2.724413        74.1351 
 257   0.0000       2.785381        75.7941 
 258   0.0000       2.796251        76.0898 
 259   0.0000       2.799415        76.1759 
 260   0.0000       2.814965        76.5991 
 261   0.0000       2.818077        76.6838 
 262   0.0000       2.828873        76.9776 
 263   0.0000       2.858102        77.7729 
 264   0.0000       2.946132        80.1683 
 265   0.0000       2.948492        80.2325 
 266   0.0000       3.146561        85.6223 
 267   0.0000       3.450613        93.8960 
 268   0.0000      13.451104       366.0232 
 269   0.0000      13.591563       369.8452 
 270   0.0000      13.625202       370.7606 
 271   0.0000      13.636763       371.0752 
 272   0.0000      13.815683       375.9438 
 273   0.0000      13.849748       376.8708 
 274   0.0000      13.910870       378.5340 
 275   0.0000      13.968050       380.0900 
 276   0.0000      13.993926       380.7941 
 277   0.0000      14.019349       381.4859 
 278   0.0000      14.029486       381.7617 
 279   0.0000      14.035798       381.9335 
 280   0.0000      14.180224       385.8635 
 281   0.0000      14.234166       387.3313 
 282   0.0000      14.260708       388.0536 
 283   0.0000      14.470747       393.7690 

                    ********************************
                    * MULLIKEN POPULATION ANALYSIS *
                    ********************************

-----------------------
MULLIKEN ATOMIC CHARGES
-----------------------
   0 C :    0.070157
   1 C :   -0.262870
   2 C :   -0.251913
   3 C :    0.077305
   4 C :   -0.272535
   5 C :    0.095391
   6 C :   -0.497245
   7 C :   -0.489742
   8 C :   -0.487934
   9 C :   -0.426114
  10 C :   -0.410534
  11 C :   -0.429743
  12 C :   -0.406312
  13 C :   -0.220214
  14 C :   -0.422587
  15 C :   -0.417047
  16 H :    0.208495
  17 H :    0.213287
  18 H :    0.205642
  19 H :    0.229932
  20 H :    0.214815
  21 H :    0.214803
  22 H :    0.231065
  23 H :    0.230318
  24 H :    0.215108
  25 H :    0.203795
  26 H :    0.218681
  27 H :    0.209386
  28 H :    0.201156
  29 H :    0.218374
  30 H :    0.206814
  31 H :    0.201658
  32 H :    0.207261
  33 H :    0.279414
  34 H :    0.209950
  35 H :    0.218528
  36 H :    0.207982
  37 H :    0.205471
Sum of atomic charges:   -0.0000000

--------------------------------
MULLIKEN REDUCED ORBITAL CHARGES
--------------------------------
  0 C s       :     3.196209  s :     3.196209
      pz      :     0.887415  p :     2.687060
      px      :     0.933790
      py      :     0.865856
      dz2     :     0.011344  d :     0.046574
      dxz     :     0.006729
      dyz     :     0.014530
      dx2y2   :     0.006409
      dxy     :     0.007561
  1 C s       :     3.258285  s :     3.258285
      pz      :     1.001374  p :     2.965895
      px      :     1.011493
      py      :     0.953028
      dz2     :     0.010754  d :     0.038689
      dxz     :     0.004979
      dyz     :     0.010989
      dx2y2   :     0.006232
      dxy     :     0.005735
  2 C s       :     3.264805  s :     3.264805
      pz      :     0.981045  p :     2.947896
      px      :     1.029941
      py      :     0.936910
      dz2     :     0.008458  d :     0.039212
      dxz     :     0.007719
      dyz     :     0.011080
      dx2y2   :     0.005918
      dxy     :     0.006037
  3 C s       :     3.189153  s :     3.189153
      pz      :     0.906888  p :     2.686394
      px      :     0.912197
      py      :     0.867309
      dz2     :     0.009141  d :     0.047148
      dxz     :     0.006664
      dyz     :     0.012187
      dx2y2   :     0.009022
      dxy     :     0.010135
  4 C s       :     3.254771  s :     3.254771
      pz      :     0.930782  p :     2.979607
      px      :     1.035754
      py      :     1.013071
      dz2     :     0.011071  d :     0.038157
      dxz     :     0.006692
      dyz     :     0.009407
      dx2y2   :     0.007752
      dxy     :     0.003235
  5 C s       :     3.176080  s :     3.176080
      pz      :     0.862772  p :     2.680539
      px      :     0.905608
      py      :     0.912159
      dz2     :     0.011814  d :     0.047989
      dxz     :     0.010142
      dyz     :     0.012367
      dx2y2   :     0.006393
      dxy     :     0.007274
  6 C s       :     3.369837  s :     3.369837
      pz      :     1.146956  p :     3.085080
      px      :     0.920754
      py      :     1.017369
      dz2     :     0.008955  d :     0.042329
      dxz     :     0.003646
      dyz     :     0.011203
      dx2y2   :     0.008702
      dxy     :     0.009822
  7 C s       :     3.370965  s :     3.370965
      pz      :     1.053296  p :     3.076955
      px      :     0.936432
      py      :     1.087227
      dz2     :     0.011446  d :     0.041822
      dxz     :     0.006599
      dyz     :     0.006113
      dx2y2   :     0.010202
      dxy     :     0.007462
  8 C s       :     3.369376  s :     3.369376
      pz      :     1.001643  p :     3.076738
      px      :     0.987168
      py      :     1.087927
      dz2     :     0.007060  d :     0.041820
      dxz     :     0.010773
      dyz     :     0.008566
      dx2y2   :     0.009318
      dxy     :     0.006103
  9 C s       :     3.352786  s :     3.352786
      pz      :     1.034664  p :     3.033317
      px      :     0.895701
      py      :     1.102953
      dz2     :     0.005233  d :     0.040011
      dxz     :     0.007461
      dyz     :     0.011100
      dx2y2   :     0.011254
      dxy     :     0.004963
 10 C s       :     3.346364  s :     3.346364
      pz      :     0.982625  p :     3.023516
      px      :     1.015333
      py      :     1.025558
      dz2     :     0.004660  d :     0.040654
      dxz     :     0.013196
      dyz     :     0.008158
      dx2y2   :     0.008774
      dxy     :     0.005866
 11 C s       :     3.355496  s :     3.355496
      pz      :     0.989893  p :     3.033857
      px      :     0.937155
      py      :     1.106809
      dz2     :     0.007783  d :     0.040390
      dxz     :     0.008483
      dyz     :     0.008041
      dx2y2   :     0.008662
      dxy     :     0.007422
 12 C s       :     3.346859  s :     3.346859
      pz      :     0.895538  p :     3.019025
      px      :     1.088257
      py      :     1.035230
      dz2     :     0.013351  d :     0.040427
      dxz     :     0.004710
      dyz     :     0.006603
      dx2y2   :     0.011038
      dxy     :     0.004726
 13 C s       :     3.304471  s :     3.304471
      pz      :     0.907540  p :     2.869021
      px      :     1.051926
      py      :     0.909555
      dz2     :     0.009379  d :     0.046722
      dxz     :     0.007111
      dyz     :     0.011307
      dx2y2   :     0.010868
      dxy     :     0.008057
 14 C s       :     3.352708  s :     3.352708
      pz      :     1.067670  p :     3.029288
      px      :     0.976364
      py      :     0.985253
      dz2     :     0.011424  d :     0.040591
      dxz     :     0.004581
      dyz     :     0.006841
      dx2y2   :     0.005428
      dxy     :     0.012319
 15 C s       :     3.351623  s :     3.351623
      pz      :     1.035003  p :     3.025169
      px      :     1.081823
      py      :     0.908344
      dz2     :     0.010694  d :     0.040255
      dxz     :     0.002880
      dyz     :     0.007909
      dx2y2   :     0.012793
      dxy     :     0.005978
 16 H s       :     0.791505  s :     0.791505
 17 H s       :     0.786713  s :     0.786713
 18 H s       :     0.794358  s :     0.794358
 19 H s       :     0.770068  s :     0.770068
 20 H s       :     0.785185  s :     0.785185
 21 H s       :     0.785197  s :     0.785197
 22 H s       :     0.768935  s :     0.768935
 23 H s       :     0.769682  s :     0.769682
 24 H s       :     0.784892  s :     0.784892
 25 H s       :     0.796205  s :     0.796205
 26 H s       :     0.781319  s :     0.781319
 27 H s       :     0.790614  s :     0.790614
 28 H s       :     0.798844  s :     0.798844
 29 H s       :     0.781626  s :     0.781626
 30 H s       :     0.793186  s :     0.793186
 31 H s       :     0.798342  s :     0.798342
 32 H s       :     0.792739  s :     0.792739
 33 H s       :     0.720586  s :     0.720586
 34 H s       :     0.790050  s :     0.790050
 35 H s       :     0.781472  s :     0.781472
 36 H s       :     0.792018  s :     0.792018
 37 H s       :     0.794529  s :     0.794529


                     *******************************
                     * LOEWDIN POPULATION ANALYSIS *
                     *******************************

----------------------
LOEWDIN ATOMIC CHARGES
----------------------
   0 C :   -0.037375
   1 C :   -0.154088
   2 C :   -0.144351
   3 C :   -0.037232
   4 C :   -0.162073
   5 C :   -0.036238
   6 C :   -0.222015
   7 C :   -0.222026
   8 C :   -0.222858
   9 C :   -0.232982
  10 C :   -0.223829
  11 C :   -0.232760
  12 C :   -0.225445
  13 C :   -0.176664
  14 C :   -0.230390
  15 C :   -0.225846
  16 H :    0.133001
  17 H :    0.134205
  18 H :    0.132734
  19 H :    0.133737
  20 H :    0.125919
  21 H :    0.126148
  22 H :    0.135147
[...]
      dz2     :     0.006006  d :     0.043002
      dxz     :     0.008074
      dyz     :     0.011655
      dx2y2   :     0.012039
      dxy     :     0.005228
 10 C s       :     3.324688  s :     3.324688
      pz      :     0.984440  p :     3.049640
      px      :     1.032059
      py      :     1.033142
      dz2     :     0.005177  d :     0.042901
      dxz     :     0.013480
      dyz     :     0.009363
      dx2y2   :     0.009208
      dxy     :     0.005673
 11 C s       :     3.333935  s :     3.333935
      pz      :     1.000634  p :     3.053766
      px      :     0.944944
      py      :     1.108188
      dz2     :     0.008277  d :     0.043200
      dxz     :     0.009665
      dyz     :     0.008285
      dx2y2   :     0.009654
      dxy     :     0.007318
 12 C s       :     3.326358  s :     3.326358
      pz      :     0.909557  p :     3.039715
      px      :     1.079151
      py      :     1.051007
      dz2     :     0.013752  d :     0.042346
      dxz     :     0.005300
      dyz     :     0.006971
      dx2y2   :     0.013562
      dxy     :     0.002761
 13 C s       :     3.289407  s :     3.289407
      pz      :     0.915294  p :     2.846687
      px      :     1.019871
      py      :     0.911522
      dz2     :     0.008891  d :     0.047185
      dxz     :     0.007577
      dyz     :     0.012367
      dx2y2   :     0.008643
      dxy     :     0.009706
 14 C s       :     3.333919  s :     3.333919
      pz      :     1.070114  p :     3.048766
      px      :     0.986786
      py      :     0.991867
      dz2     :     0.012639  d :     0.042924
      dxz     :     0.004312
      dyz     :     0.006973
      dx2y2   :     0.005797
      dxy     :     0.013204
 15 C s       :     3.328573  s :     3.328573
      pz      :     1.043732  p :     3.043274
      px      :     1.075945
      py      :     0.923597
      dz2     :     0.012154  d :     0.042696
      dxz     :     0.002744
      dyz     :     0.008131
      dx2y2   :     0.013026
      dxy     :     0.006641
 16 H s       :     0.792713  s :     0.792713
 17 H s       :     0.789700  s :     0.789700
 18 H s       :     0.794845  s :     0.794845
 19 H s       :     0.768895  s :     0.768895
 20 H s       :     0.780074  s :     0.780074
 21 H s       :     0.780336  s :     0.780336
 22 H s       :     0.767429  s :     0.767429
 23 H s       :     0.767935  s :     0.767935
 24 H s       :     0.779401  s :     0.779401
 25 H s       :     0.793388  s :     0.793388
 26 H s       :     0.778024  s :     0.778024
 27 H s       :     0.787244  s :     0.787244
 28 H s       :     0.796807  s :     0.796807
 29 H s       :     0.778840  s :     0.778840
 30 H s       :     0.791648  s :     0.791648
 31 H s       :     0.795173  s :     0.795173
 32 H s       :     0.789627  s :     0.789627
 33 H s       :     0.778058  s :     0.778058
 34 H s       :     0.788256  s :     0.788256
 35 H s       :     0.778530  s :     0.778530
 36 H s       :     0.790302  s :     0.790302
 37 H s       :     0.792700  s :     0.792700


                     *******************************
                     * LOEWDIN POPULATION ANALYSIS *
                     *******************************

----------------------
LOEWDIN ATOMIC CHARGES
----------------------
   0 C :   -0.045027
   1 C :   -0.144775
   2 C :   -0.135962
   3 C :   -0.045301
   4 C :   -0.152837
   5 C :   -0.043722
   6 C :   -0.222072
   7 C :   -0.222471
   8 C :   -0.222669
   9 C :   -0.233488
  10 C :   -0.228336
  11 C :   -0.233312
  12 C :   -0.227529
  13 C :   -0.169129
  14 C :   -0.232024
  15 C :   -0.227716
  16 H :    0.130678
  17 H :    0.130775
  18 H :    0.130812
  19 H :    0.132853
  20 H :    0.127190
  21 H :    0.127314
  22 H :    0.134082
  23 H :    0.133231
  24 H :    0.127448
  25 H :    0.118022
  26 H :    0.126344
  27 H :    0.122642
  28 H :    0.118943
  29 H :    0.125710
  30 H :    0.116969
  31 H :    0.120749
  32 H :    0.122778
  33 H :    0.152848
  34 H :    0.119093
  35 H :    0.125906
  36 H :    0.121695
  37 H :    0.120289

-------------------------------
LOEWDIN REDUCED ORBITAL CHARGES
-------------------------------
  0 C s       :     2.854333  s :     2.854333
      pz      :     1.063612  p :     3.076807
      px      :     0.939987
      py      :     1.073208
      dz2     :     0.029252  d :     0.113887
      dxz     :     0.014134
      dyz     :     0.038686
      dx2y2   :     0.014392
      dxy     :     0.017423
  1 C s       :     2.885246  s :     2.885246
      pz      :     1.066529  p :     3.168193
      px      :     1.033064
      py      :     1.068600
      dz2     :     0.024063  d :     0.091336
      dxz     :     0.011369
      dyz     :     0.027449
      dx2y2   :     0.015212
      dxy     :     0.013244
  2 C s       :     2.884227  s :     2.884227
      pz      :     1.071195  p :     3.160386
      px      :     1.021647
      py      :     1.067543
      dz2     :     0.021035  d :     0.091349
      dxz     :     0.014601
      dyz     :     0.028778
      dx2y2   :     0.014744
      dxy     :     0.012192
  3 C s       :     2.854425  s :     2.854425
      pz      :     1.029620  p :     3.076655
      px      :     0.971127
      py      :     1.075907
      dz2     :     0.022350  d :     0.114221
      dxz     :     0.014620
      dyz     :     0.031108
      dx2y2   :     0.021083
      dxy     :     0.025060
  4 C s       :     2.887794  s :     2.887794
      pz      :     1.068092  p :     3.173770
      px      :     1.039456
      py      :     1.066222
      dz2     :     0.029479  d :     0.091273
      dxz     :     0.016475
      dyz     :     0.024563
      dx2y2   :     0.014327
      dxy     :     0.006430
  5 C s       :     2.852824  s :     2.852824
      pz      :     1.085571  p :     3.075833
      px      :     0.983313
      py      :     1.006949
      dz2     :     0.030575  d :     0.115065
      dxz     :     0.024521
      dyz     :     0.031185
      dx2y2   :     0.013031
      dxy     :     0.015753
  6 C s       :     2.909144  s :     2.909144
      pz      :     1.110181  p :     3.224990
      px      :     1.042248
      py      :     1.072561
      dz2     :     0.016246  d :     0.087938
      dxz     :     0.008150
      dyz     :     0.021553
      dx2y2   :     0.019044
      dxy     :     0.022945
  7 C s       :     2.908905  s :     2.908905
      pz      :     1.084023  p :     3.225979
      px      :     1.052361
      py      :     1.089595
      dz2     :     0.024162  d :     0.087587
      dxz     :     0.013862
      dyz     :     0.010734
      dx2y2   :     0.022409
      dxy     :     0.016419
  8 C s       :     2.908007  s :     2.908007
      pz      :     1.065654  p :     3.226814
      px      :     1.069327
      py      :     1.091833
      dz2     :     0.016241  d :     0.087849
      dxz     :     0.022727
      dyz     :     0.017539
      dx2y2   :     0.018431
      dxy     :     0.012911
  9 C s       :     2.917878  s :     2.917878
      pz      :     1.078810  p :     3.228922
      px      :     1.040750
      py      :     1.109362
      dz2     :     0.012097  d :     0.086689
      dxz     :     0.018777
      dyz     :     0.020480
      dx2y2   :     0.024445
      dxy     :     0.010890
 10 C s       :     2.914827  s :     2.914827
      pz      :     1.072081  p :     3.226120
      px      :     1.073744
      py      :     1.080294
      dz2     :     0.011110  d :     0.087389
      dxz     :     0.027297
      dyz     :     0.020056
      dx2y2   :     0.017541
      dxy     :     0.011385
 11 C s       :     2.919814  s :     2.919814
      pz      :     1.074579  p :     3.226678
      px      :     1.043094
      py      :     1.109005
      dz2     :     0.017889  d :     0.086820
      dxz     :     0.020416
      dyz     :     0.015362
      dx2y2   :     0.019692
      dxy     :     0.013460
 12 C s       :     2.914983  s :     2.914983
      pz      :     1.044685  p :     3.226294
      px      :     1.093694
      py      :     1.087916
      dz2     :     0.029064  d :     0.086252
      dxz     :     0.012119
      dyz     :     0.015887
      dx2y2   :     0.023745
      dxy     :     0.005437
 13 C s       :     2.868287  s :     2.868287
      pz      :     1.042632  p :     3.197952
      px      :     1.103936
      py      :     1.051384
      dz2     :     0.019196  d :     0.102889
      dxz     :     0.016176
      dyz     :     0.029057
      dx2y2   :     0.017212
      dxy     :     0.021249
 14 C s       :     2.919842  s :     2.919842
      pz      :     1.102550  p :     3.225963
      px      :     1.053554
      py      :     1.069859
      dz2     :     0.023328  d :     0.086219
      dxz     :     0.008302
      dyz     :     0.014920
      dx2y2   :     0.013178
      dxy     :     0.026491
 15 C s       :     2.912515  s :     2.912515
      pz      :     1.085676  p :     3.227980
      px      :     1.094187
      py      :     1.048117
      dz2     :     0.022633  d :     0.087221
      dxz     :     0.005392
      dyz     :     0.018255
      dx2y2   :     0.026066
      dxy     :     0.014874
 16 H s       :     0.869322  s :     0.869322
 17 H s       :     0.869225  s :     0.869225
 18 H s       :     0.869188  s :     0.869188
 19 H s       :     0.867147  s :     0.867147
 20 H s       :     0.872810  s :     0.872810
 21 H s       :     0.872686  s :     0.872686
 22 H s       :     0.865918  s :     0.865918
 23 H s       :     0.866769  s :     0.866769
 24 H s       :     0.872552  s :     0.872552
 25 H s       :     0.881978  s :     0.881978
 26 H s       :     0.873656  s :     0.873656
 27 H s       :     0.877358  s :     0.877358
 28 H s       :     0.881057  s :     0.881057
 29 H s       :     0.874290  s :     0.874290
 30 H s       :     0.883031  s :     0.883031
 31 H s       :     0.879251  s :     0.879251
 32 H s       :     0.877222  s :     0.877222
 33 H s       :     0.847152  s :     0.847152
 34 H s       :     0.880907  s :     0.880907
 35 H s       :     0.874094  s :     0.874094
 36 H s       :     0.878305  s :     0.878305
 37 H s       :     0.879711  s :     0.879711


                      *****************************
                      * MAYER POPULATION ANALYSIS *
                      *****************************

  NA   - Mulliken gross atomic population
  ZA   - Total nuclear charge
  QA   - Mulliken gross atomic charge
  VA   - Mayer's total valence
  BVA  - Mayer's bonded valence
  FA   - Mayer's free valence

  ATOM       NA         ZA         QA         VA         BVA        FA
  0 C      5.9218     6.0000     0.0782     3.7642     3.7642    -0.0000
  1 C      6.2622     6.0000    -0.2622     3.7855     3.7855    -0.0000
  2 C      6.2565     6.0000    -0.2565     3.7533     3.7533     0.0000
  3 C      5.9259     6.0000     0.0741     3.7648     3.7648     0.0000
  4 C      6.2718     6.0000    -0.2718     3.8209     3.8209     0.0000
  5 C      5.9208     6.0000     0.0792     3.7684     3.7684     0.0000
  6 C      6.4939     6.0000    -0.4939     3.7372     3.7372     0.0000
  7 C      6.4888     6.0000    -0.4888     3.7300     3.7300    -0.0000
  8 C      6.4916     6.0000    -0.4916     3.7346     3.7346     0.0000
  9 C      6.4268     6.0000    -0.4268     3.7307     3.7307    -0.0000
 10 C      6.4172     6.0000    -0.4172     3.7368     3.7368     0.0000
 11 C      6.4309     6.0000    -0.4309     3.7368     3.7368    -0.0000
 12 C      6.4084     6.0000    -0.4084     3.7234     3.7234    -0.0000
 13 C      6.1833     6.0000    -0.1833     3.6400     3.6400     0.0000
 14 C      6.4256     6.0000    -0.4256     3.7267     3.7267     0.0000
 15 C      6.4145     6.0000    -0.4145     3.7252     3.7252     0.0000
 16 H      0.7927     1.0000     0.2073     0.9207     0.9207    -0.0000
 17 H      0.7897     1.0000     0.2103     0.9172     0.9172     0.0000
 18 H      0.7948     1.0000     0.2052     0.9225     0.9225     0.0000
 19 H      0.7689     1.0000     0.2311     0.9023     0.9023     0.0000
 20 H      0.7801     1.0000     0.2199     0.9103     0.9103     0.0000
 21 H      0.7803     1.0000     0.2197     0.9106     0.9106     0.0000
 22 H      0.7674     1.0000     0.2326     0.9011     0.9011    -0.0000
 23 H      0.7679     1.0000     0.2321     0.9018     0.9018     0.0000
 24 H      0.7794     1.0000     0.2206     0.9100     0.9100    -0.0000
 25 H      0.7934     1.0000     0.2066     0.9129     0.9129     0.0000
 26 H      0.7780     1.0000     0.2220     0.9053     0.9053    -0.0000
 27 H      0.7872     1.0000     0.2128     0.9080     0.9080    -0.0000
 28 H      0.7968     1.0000     0.2032     0.9141     0.9141    -0.0000
 29 H      0.7788     1.0000     0.2212     0.9042     0.9042    -0.0000
 30 H      0.7916     1.0000     0.2084     0.9093     0.9093     0.0000
 31 H      0.7952     1.0000     0.2048     0.9130     0.9130     0.0000
 32 H      0.7896     1.0000     0.2104     0.9107     0.9107     0.0000
 33 H      0.7781     1.0000     0.2219     0.8481     0.8481     0.0000
 34 H      0.7883     1.0000     0.2117     0.9073     0.9073     0.0000
 35 H      0.7785     1.0000     0.2215     0.9051     0.9051     0.0000
 36 H      0.7903     1.0000     0.2097     0.9112     0.9112     0.0000
 37 H      0.7927     1.0000     0.2073     0.9112     0.9112     0.0000

  Mayer bond orders larger than 0.100000
B(  0-C ,  1-C ) :   1.3725 B(  0-C ,  4-C ) :   1.4093 B(  0-C ,  8-C ) :   0.9674 
B(  1-C ,  5-C ) :   1.4098 B(  1-C , 16-H ) :   0.9182 B(  2-C ,  3-C ) :   1.3916 
B(  2-C ,  5-C ) :   1.3746 B(  2-C , 17-H ) :   0.9199 B(  3-C ,  4-C ) :   1.3915 
B(  3-C ,  7-C ) :   0.9645 B(  4-C , 18-H ) :   0.9172 B(  5-C ,  6-C ) :   0.9671 
B(  6-C , 14-C ) :   0.9734 B(  6-C , 19-H ) :   0.9146 B(  6-C , 20-H ) :   0.9200 
B(  7-C , 11-C ) :   0.9737 B(  7-C , 21-H ) :   0.9207 B(  7-C , 22-H ) :   0.9139 
B(  8-C ,  9-C ) :   0.9733 B(  8-C , 23-H ) :   0.9150 B(  8-C , 24-H ) :   0.9204 
B(  9-C , 10-C ) :   0.9862 B(  9-C , 25-H ) :   0.9106 B(  9-C , 26-H ) :   0.9187 
B( 10-C , 13-C ) :   0.9742 B( 10-C , 27-H ) :   0.9228 B( 10-C , 28-H ) :   0.9197 
B( 11-C , 12-C ) :   0.9929 B( 11-C , 29-H ) :   0.9168 B( 11-C , 30-H ) :   0.9081 
B( 12-C , 13-C ) :   0.9579 B( 12-C , 31-H ) :   0.9234 B( 12-C , 32-H ) :   0.9230 
B( 13-C , 15-C ) :   0.9684 B( 13-C , 33-H ) :   0.8744 B( 14-C , 15-C ) :   0.9852 
B( 14-C , 34-H ) :   0.9079 B( 14-C , 35-H ) :   0.9186 B( 15-C , 36-H ) :   0.9202 
B( 15-C , 37-H ) :   0.9190 

-------
TIMINGS
-------

Total SCF time: 0 days 0 hours 2 min 9 sec 

Total time                  ....     129.508 sec
Sum of individual times     ....     129.228 sec  ( 99.8%)

Fock matrix formation       ....     124.343 sec  ( 96.0%)
  Split-RI-J                ....       8.498 sec  (  6.8% of F)
  Chain of spheres X        ....     110.158 sec  ( 88.6% of F)
  XC integration            ....       5.725 sec  (  4.6% of F)
    Basis function eval.    ....       2.472 sec  ( 43.2% of XC)
    Density eval.           ....       1.443 sec  ( 25.2% of XC)
    XC-Functional eval.     ....       0.472 sec  (  8.2% of XC)
    XC-Potential eval.      ....       1.111 sec  ( 19.4% of XC)
Diagonalization             ....       0.011 sec  (  0.0%)
Density matrix formation    ....       0.009 sec  (  0.0%)
Population analysis         ....       0.010 sec  (  0.0%)
Initial guess               ....       0.015 sec  (  0.0%)
Orbital Transformation      ....       0.000 sec  (  0.0%)
Orbital Orthonormalization  ....       0.011 sec  (  0.0%)
DIIS solution               ....       0.003 sec  (  0.0%)
SOSCF solution              ....       0.034 sec  (  0.0%)
Grid generation             ....       4.805 sec  (  3.7%)

Maximum memory used throughout the entire SCF-calculation: 124.6 MB


-------------------------------------------------------------------------------
                          DFT DISPERSION CORRECTION                            
                                                                               
                              DFTD3 V3.1  Rev 1                                
                          USING Becke-Johnson damping                          
-------------------------------------------------------------------------------
The PBEh-3c composite method is recognized
Using three-body term ABC
Active option DFTDOPT                   ...         4   

molecular C6(AA) [au] = 12359.549234 


            DFT-D V3
 parameters
 s6 scaling factor         :     1.0000 
 a1 scaling factor         :     0.4860 
 s8 scaling factor         :     0.0000 
 a2 scaling factor         :     4.5000 
 Damping factor alpha9(ATM):    16.0000 
 ad hoc parameters k1-k3   :    16.0000     1.3333    -4.0000 

 Edisp/kcal,au: -19.819384919883  -0.031584196932 
 E6   /kcal   : -20.261443685 
 E8   /kcal   :  -0.000000000 
 E6(ABC)      :   0.442058765 
 % E8         :   0.000000000 
 % E6(ABC)    :  -2.230436348 

-------------------------   ----------------
Dispersion correction           -0.031584197
-------------------------   ----------------

------------------   -----------------
gCP correction             0.068456505
------------------   -----------------

-------------------------   --------------------
FINAL SINGLE POINT ENERGY      -621.549576810192
-------------------------   --------------------

                                *** OPTIMIZATION RUN DONE ***

                            ***************************************
                            *     ORCA property calculations      *
                            ***************************************

                                    ---------------------
                                    Active property flags
                                    ---------------------
   (+) Dipole Moment


------------------------------------------------------------------------------
                       ORCA ELECTRIC PROPERTIES CALCULATION
------------------------------------------------------------------------------

Dipole Moment Calculation                       ... on
Quadrupole Moment Calculation                   ... off
Polarizability Calculation                      ... off
GBWName                                         ... H.gbw
Electron density                                ... H.scfp
The origin for moment calculation is the CENTER OF MASS  = (-2.680170, -4.729986 -4.911814)

-------------
DIPOLE MOMENT
-------------
                                X             Y             Z
Electronic contribution:     -9.22950       3.29248       2.65908
Nuclear contribution   :      9.84055      -3.48707      -2.81868
                        -----------------------------------------
Total Dipole Moment    :      0.61105      -0.19459      -0.15960
                        -----------------------------------------
Magnitude (a.u.)       :      0.66085
Magnitude (Debye)      :      1.67974



--------------------
Rotational spectrum 
--------------------
 
Rotational constants in cm-1:     0.022378     0.019720     0.018783 
Rotational constants in MHz :   670.874952   591.200325   563.096069 

 Dipole components along the rotational axes: 
x,y,z [a.u.] :     0.062548     0.065104    -0.654651 
x,y,z [Debye]:     0.158984     0.165480    -1.663990 

 

Timings for individual modules:

Sum of individual times         ...     2172.275 sec (=  36.205 min)
GTO integral calculation        ...        3.549 sec (=   0.059 min)   0.2 %
SCF iterations                  ...     1630.665 sec (=  27.178 min)  75.1 %
SCF Gradient evaluation         ...      537.269 sec (=   8.954 min)  24.7 %
Geometry relaxation             ...        0.792 sec (=   0.013 min)   0.0 %
                             ****ORCA TERMINATED NORMALLY****
TOTAL RUN TIME: 0 days 0 hours 36 minutes 13 seconds 720 msec
