
                                 *****************
                                 * O   R   C   A *
                                 *****************

                                            #,                                       
                                            ###                                      
                                            ####                                     
                                            #####                                    
                                            ######                                   
                                           ########,                                 
                                     ,,################,,,,,                         
                               ,,#################################,,                 
                          ,,##########################################,,             
                       ,#########################################, ''#####,          
                    ,#############################################,,   '####,        
                  ,##################################################,,,,####,       
                ,###########''''           ''''###############################       
              ,#####''   ,,,,##########,,,,          '''####'''          '####       
            ,##' ,,,,###########################,,,                        '##       
           ' ,,###''''                  '''############,,,                           
         ,,##''                                '''############,,,,        ,,,,,,###''
      ,#''                                            '''#######################'''  
     '                                                          ''''####''''         
             ,#######,   #######,   ,#######,      ##                                
            ,#'     '#,  ##    ##  ,#'     '#,    #''#        ######   ,####,        
            ##       ##  ##   ,#'  ##            #'  '#       #        #'  '#        
            ##       ##  #######   ##           ,######,      #####,   #    #        
            '#,     ,#'  ##    ##  '#,     ,#' ,#      #,         ##   #,  ,#        
             '#######'   ##     ##  '#######'  #'      '#     #####' # '####'        



                  #######################################################
                  #                        -***-                        #
                  #          Department of theory and spectroscopy      #
                  #    Directorship and core code : Frank Neese         #
                  #        Max Planck Institute fuer Kohlenforschung    #
                  #                Kaiser Wilhelm Platz 1               #
                  #                 D-45470 Muelheim/Ruhr               #
                  #                      Germany                        #
                  #                                                     #
                  #                  All rights reserved                #
                  #                        -***-                        #
                  #######################################################


                         Program Version 5.0.2 -  RELEASE  -


 With contributions from (in alphabetic order):
   Daniel Aravena         : Magnetic Suceptibility
   Michael Atanasov       : Ab Initio Ligand Field Theory (pilot matlab implementation)
   Alexander A. Auer      : GIAO ZORA, VPT2 properties, NMR spectrum
   Ute Becker             : Parallelization
   Giovanni Bistoni       : ED, misc. LED, open-shell LED, HFLD
   Martin Brehm           : Molecular dynamics
   Dmytro Bykov           : SCF Hessian
   Vijay G. Chilkuri      : MRCI spin determinant printing, contributions to CSF-ICE
   Dipayan Datta          : RHF DLPNO-CCSD density
   Achintya Kumar Dutta   : EOM-CC, STEOM-CC
   Dmitry Ganyushin       : Spin-Orbit,Spin-Spin,Magnetic field MRCI
   Miquel Garcia          : C-PCM and meta-GGA Hessian, CC/C-PCM, Gaussian charge scheme
   Yang Guo               : DLPNO-NEVPT2, F12-NEVPT2, CIM, IAO-localization
   Andreas Hansen         : Spin unrestricted coupled pair/coupled cluster methods
   Benjamin Helmich-Paris : MC-RPA, TRAH-SCF, COSX integrals
   Lee Huntington         : MR-EOM, pCC
   Robert Izsak           : Overlap fitted RIJCOSX, COSX-SCS-MP3, EOM
   Marcus Kettner         : VPT2
   Christian Kollmar      : KDIIS, OOCD, Brueckner-CCSD(T), CCSD density, CASPT2, CASPT2-K
   Simone Kossmann        : Meta GGA functionals, TD-DFT gradient, OOMP2, MP2 Hessian
   Martin Krupicka        : Initial AUTO-CI
   Lucas Lang             : DCDCAS
   Marvin Lechner         : AUTO-CI (C++ implementation), FIC-MRCC
   Dagmar Lenk            : GEPOL surface, SMD
   Dimitrios Liakos       : Extrapolation schemes; Compound Job, initial MDCI parallelization
   Dimitrios Manganas     : Further ROCIS development; embedding schemes
   Dimitrios Pantazis     : SARC Basis sets
   Anastasios Papadopoulos: AUTO-CI, single reference methods and gradients
   Taras Petrenko         : DFT Hessian,TD-DFT gradient, ASA, ECA, R-Raman, ABS, FL, XAS/XES, NRVS
   Peter Pinski           : DLPNO-MP2, DLPNO-MP2 Gradient
   Christoph Reimann      : Effective Core Potentials
   Marius Retegan         : Local ZFS, SOC
   Christoph Riplinger    : Optimizer, TS searches, QM/MM, DLPNO-CCSD(T), (RO)-DLPNO pert. Triples
   Tobias Risthaus        : Range-separated hybrids, TD-DFT gradient, RPA, STAB
   Michael Roemelt        : Original ROCIS implementation
   Masaaki Saitow         : Open-shell DLPNO-CCSD energy and density
   Barbara Sandhoefer     : DKH picture change effects
   Avijit Sen             : IP-ROCIS
   Kantharuban Sivalingam : CASSCF convergence, NEVPT2, FIC-MRCI
   Bernardo de Souza      : ESD, SOC TD-DFT
   Georgi Stoychev        : AutoAux, RI-MP2 NMR, DLPNO-MP2 response
   Willem Van den Heuvel  : Paramagnetic NMR
   Boris Wezisla          : Elementary symmetry handling
   Frank Wennmohs         : Technical directorship


 We gratefully acknowledge several colleagues who have allowed us to
 interface, adapt or use parts of their codes:
   Stefan Grimme, W. Hujo, H. Kruse, P. Pracht,  : VdW corrections, initial TS optimization,
                  C. Bannwarth, S. Ehlert          DFT functionals, gCP, sTDA/sTD-DF
   Ed Valeev, F. Pavosevic, A. Kumar             : LibInt (2-el integral package), F12 methods
   Garnet Chan, S. Sharma, J. Yang, R. Olivares  : DMRG
   Ulf Ekstrom                                   : XCFun DFT Library
   Mihaly Kallay                                 : mrcc  (arbitrary order and MRCC methods)
   Jiri Pittner, Ondrej Demel                    : Mk-CCSD
   Frank Weinhold                                : gennbo (NPA and NBO analysis)
   Christopher J. Cramer and Donald G. Truhlar   : smd solvation model
   Lars Goerigk                                  : TD-DFT with DH, B97 family of functionals
   V. Asgeirsson, H. Jonsson                     : NEB implementation
   FAccTs GmbH                                   : IRC, NEB, NEB-TS, DLPNO-Multilevel, CI-OPT
                                                   MM, QMMM, 2- and 3-layer-ONIOM, Crystal-QMMM,
                                                   LR-CPCM, SF, NACMEs, symmetry and pop. for TD-DFT,
                                                   nearIR, NL-DFT gradient (VV10), updates on ESD,
                                                   ML-optimized integration grids
   S Lehtola, MJT Oliveira, MAL Marques          : LibXC Library
   Liviu Ungur et al                             : ANISO software


 Your calculation uses the libint2 library for the computation of 2-el integrals
 For citations please refer to: http://libint.valeyev.net

 Your ORCA version has been built with support for libXC version: 5.1.0
 For citations please refer to: https://tddft.org/programs/libxc/

 This ORCA versions uses:
   CBLAS   interface :  Fast vector & matrix operations
   LAPACKE interface :  Fast linear algebra routines
   SCALAPACK package :  Parallel linear algebra routines
   Shared memory     :  Shared parallel matrices
   BLAS/LAPACK       :  OpenBLAS 0.3.15  USE64BITINT DYNAMIC_ARCH NO_AFFINITY Haswell SINGLE_THREADED
        Core in use  :  Haswell
   Copyright (c) 2011-2014, The OpenBLAS Project




***************************************
The coordinates will be read from file: OPT_D.xyz
***************************************



Information: The global flag for chemical shieldings has been found
             ==>> will calculate the chemical shieldings for all atoms in the system

================================================================================

----- Orbital basis set information -----
Your calculation utilizes the basis: pcSseg-2
   F. Jensen, J. Chem. Theory Comput. 11, 132 (2015).

----- AuxJ basis set information -----
Your calculation utilizes the auxiliary basis: def2/J
   F. Weigend, Phys. Chem. Chem. Phys. 8, 1057 (2006).

================================================================================
                                        WARNINGS
                       Please study these warnings very carefully!
================================================================================


INFO   : the flag for use of the SHARK integral package has been found!

================================================================================
                                       INPUT FILE
================================================================================
NAME = D.inp
|  1> !PBE RI pcSseg-2 def2/J NMR
|  2> 
|  3> *xyzfile 0 1 OPT_D.xyz
|  4> 
|  5> 
|  6>                          ****END OF INPUT****
================================================================================

                       ****************************
                       * Single Point Calculation *
                       ****************************

---------------------------------
CARTESIAN COORDINATES (ANGSTROEM)
---------------------------------
  C     -7.057334    3.989369    2.699594
  C     -5.912888    4.753676    2.342589
  C     -4.803490    4.178479    1.871094
  C     -3.659306    4.942888    1.513553
  H     -5.982842    5.826501    2.469492
  H     -4.733801    3.105615    1.744391
  N     -2.723041    5.544560    1.218789
  N     -7.994858    3.387872    2.990668

----------------------------
CARTESIAN COORDINATES (A.U.)
----------------------------
  NO LB      ZA    FRAG     MASS         X           Y           Z
   0 C     6.0000    0    12.011  -13.336429    7.538815    5.101493
   1 C     6.0000    0    12.011  -11.173739    8.983145    4.426851
   2 C     6.0000    0    12.011   -9.077280    7.896181    3.535854
   3 C     6.0000    0    12.011   -6.915086    9.340705    2.860202
   4 H     1.0000    0     1.008  -11.305932   11.010492    4.666664
   5 H     1.0000    0     1.008   -8.945588    5.868762    3.296421
   6 N     7.0000    0    14.007   -5.145802   10.477700    2.303177
   7 N     7.0000    0    14.007  -15.108092    6.402150    5.651544

--------------------------------
INTERNAL COORDINATES (ANGSTROEM)
--------------------------------
 C      0   0   0     0.000000000000     0.00000000     0.00000000
 C      1   0   0     1.421750359274     0.00000000     0.00000000
 C      2   1   0     1.335636158428   121.71795031     0.00000000
 C      3   2   1     1.421729021326   121.71503353   179.97158869
 H      2   1   3     1.082567590572   116.82671233   179.91098001
 H      3   2   1     1.082565065740   121.43833023   359.90078876
 N      4   3   2     1.151297723096   178.97715638   179.83546177
 N      1   2   3     1.151292252562   178.97575975   189.72484969

---------------------------
INTERNAL COORDINATES (A.U.)
---------------------------
 C      0   0   0     0.000000000000     0.00000000     0.00000000
 C      1   0   0     2.686718809832     0.00000000     0.00000000
 C      2   1   0     2.523986553992   121.71795031     0.00000000
 C      3   2   1     2.686678486954   121.71503353   179.97158869
 H      2   1   3     2.045756267641   116.82671233   179.91098001
 H      3   2   1     2.045751496398   121.43833023   359.90078876
 N      4   3   2     2.175637395259   178.97715638   179.83546177
 N      1   2   3     2.175627057448   178.97575975   189.72484969

---------------------
BASIS SET INFORMATION
---------------------
There are 3 groups of distinct atoms

 Group   1 Type C   : 11s7p2d1f contracted to 4s5p2d1f pattern {7211/31111/11/1}
 Group   2 Type H   : 6s3p1d contracted to 3s2p1d pattern {411/21/1}
 Group   3 Type N   : 11s7p2d1f contracted to 4s5p2d1f pattern {7211/31111/11/1}

Atom   0C    basis set group =>   1
Atom   1C    basis set group =>   1
Atom   2C    basis set group =>   1
Atom   3C    basis set group =>   1
Atom   4H    basis set group =>   2
Atom   5H    basis set group =>   2
Atom   6N    basis set group =>   3
Atom   7N    basis set group =>   3
---------------------------------
AUXILIARY/J BASIS SET INFORMATION
---------------------------------
There are 3 groups of distinct atoms

 Group   1 Type C   : 12s5p4d2f1g contracted to 6s4p3d1f1g pattern {711111/2111/211/2/1}
 Group   2 Type H   : 5s2p1d contracted to 3s1p1d pattern {311/2/1}
 Group   3 Type N   : 12s5p4d2f1g contracted to 6s4p3d1f1g pattern {711111/2111/211/2/1}

Atom   0C    basis set group =>   1
Atom   1C    basis set group =>   1
Atom   2C    basis set group =>   1
Atom   3C    basis set group =>   1
Atom   4H    basis set group =>   2
Atom   5H    basis set group =>   2
Atom   6N    basis set group =>   3
Atom   7N    basis set group =>   3
------------------------------------------------------------------------------
                           ORCA GTO INTEGRAL CALCULATION
                           -- RI-GTO INTEGRALS CHOSEN --
------------------------------------------------------------------------------
------------------------------------------------------------------------------
                   ___                                                        
                  /   \      - P O W E R E D   B Y -                         
                 /     \                                                     
                 |  |  |   _    _      __       _____    __    __             
                 |  |  |  | |  | |    /  \     |  _  \  |  |  /  |          
                  \  \/   | |  | |   /    \    | | | |  |  | /  /          
                 / \  \   | |__| |  /  /\  \   | |_| |  |  |/  /          
                |  |  |   |  __  | /  /__\  \  |    /   |      \           
                |  |  |   | |  | | |   __   |  |    \   |  |\   \          
                \     /   | |  | | |  |  |  |  | |\  \  |  | \   \       
                 \___/    |_|  |_| |__|  |__|  |_| \__\ |__|  \__/        
                                                                              
                      - O R C A' S   B I G   F R I E N D -                    
                                      &                                       
                       - I N T E G R A L  F E E D E R -                       
                                                                              
 v1 FN, 2020, v2 2021                                                         
------------------------------------------------------------------------------


Reading SHARK input file D.SHARKINP.tmp ... ok
----------------------
SHARK INTEGRAL PACKAGE
----------------------

Number of atoms                             ...      8
Number of basis functions                   ...    244
Number of shells                            ...     84
Maximum angular momentum                    ...      3
Integral batch strategy                     ... SHARK/LIBINT Hybrid
RI-J (if used) integral strategy            ... SPLIT-RIJ (Revised 2003 algorithm where possible)
Printlevel                                  ...      1
Contraction scheme used                     ... SEGMENTED contraction
Coulomb Range Separation                    ... NOT USED
Exchange Range Separation                   ... NOT USED
Finite Nucleus Model                        ... NOT USED
Auxiliary Coulomb fitting basis             ... AVAILABLE
   # of basis functions in Aux-J            ...    316
   # of shells in Aux-J                     ...    100
   Maximum angular momentum in Aux-J        ...      4
Auxiliary J/K fitting basis                 ... NOT available
Auxiliary Correlation fitting basis         ... NOT available
Auxiliary 'external' fitting basis          ... NOT available
Integral threshold                          ...     1.000000e-10
Primitive cut-off                           ...     1.000000e-11
Primitive pair pre-selection threshold      ...     1.000000e-11

Calculating pre-screening integrals         ... done (  0.1 sec) Dimension = 84
Organizing shell pair data                  ... done (  0.1 sec)
Shell pair information
Total number of shell pairs                 ...      3570
Shell pairs after pre-screening             ...      3204
Total number of primitive shell pairs       ...     10895
Primitive shell pairs kept                  ...      7438
          la=0 lb=0:    436 shell pairs
          la=1 lb=0:    928 shell pairs
          la=1 lb=1:    516 shell pairs
          la=2 lb=0:    388 shell pairs
          la=2 lb=1:    416 shell pairs
          la=2 lb=2:     92 shell pairs
          la=3 lb=0:    160 shell pairs
          la=3 lb=1:    174 shell pairs
          la=3 lb=2:     76 shell pairs
          la=3 lb=3:     18 shell pairs

Calculating one electron integrals          ... done (  0.0 sec)
Calculating RI/J V-Matrix + Cholesky decomp.... done (  0.0 sec)
Calculating Nuclear repulsion               ... done (  0.0 sec) ENN=    163.037510259551 Eh

SHARK setup successfully completed in   0.4 seconds

Maximum memory used throughout the entire GTOINT-calculation: 57.4 MB
-------------------------------------------------------------------------------
                                 ORCA SCF
-------------------------------------------------------------------------------

------------
SCF SETTINGS
------------
Hamiltonian:
 Density Functional     Method          .... DFT(GTOs)
 Exchange Functional    Exchange        .... PBE
   PBE kappa parameter   XKappa         ....  0.804000
   PBE mue parameter    XMuePBE         ....  0.219520
 Correlation Functional Correlation     .... PBE
   PBE beta parameter  CBetaPBE         ....  0.066725
 LDA part of GGA corr.  LDAOpt          .... PW91-LDA
 Gradients option       PostSCFGGA      .... off
   Density functional embedding theory  .... OFF
   NL short-range parameter             ....  6.400000
 RI-approximation to the Coulomb term is turned on
   Number of AuxJ basis functions       .... 316


General Settings:
 Integral files         IntName         .... D
 Hartree-Fock type      HFTyp           .... RHF
 Total Charge           Charge          ....    0
 Multiplicity           Mult            ....    1
 Number of Electrons    NEL             ....   40
 Basis Dimension        Dim             ....  244
 Nuclear Repulsion      ENuc            ....    163.0375102596 Eh

Convergence Acceleration:
 DIIS                   CNVDIIS         .... on
   Start iteration      DIISMaxIt       ....    12
   Startup error        DIISStart       ....  0.200000
   # of expansion vecs  DIISMaxEq       ....     5
   Bias factor          DIISBfac        ....   1.050
   Max. coefficient     DIISMaxC        ....  10.000
 Trust-Rad. Augm. Hess. CNVTRAH         .... auto
   Auto Start mean grad. ratio tolernc. ....  1.125000
   Auto Start start iteration           ....    20
   Auto Start num. interpolation iter.  ....    10
   Max. Number of Micro iterations      ....    16
   Max. Number of Macro iterations      .... Maxiter - #DIIS iter
   Number of Davidson start vectors     ....     2
   Converg. threshold I  (grad. norm)   ....   5.000e-05
   Converg. threshold II (energy diff.) ....   1.000e-06
   Grad. Scal. Fac. for Micro threshold ....   0.100
   Minimum threshold for Micro iter.    ....   0.010
   NR start threshold (gradient norm)   ....   0.001
   Initial trust radius                 ....   0.400
   Minimum AH scaling param. (alpha)    ....   1.000
   Maximum AH scaling param. (alpha)    .... 1000.000
   Orbital update algorithm             .... Taylor
   White noise on init. David. guess    .... on
   Maximum white noise                  ....   0.010
   Quad. conv. algorithm                .... NR
 SOSCF                  CNVSOSCF        .... on
   Start iteration      SOSCFMaxIt      ....   150
   Startup grad/error   SOSCFStart      ....  0.003300
 Level Shifting         CNVShift        .... on
   Level shift para.    LevelShift      ....    0.2500
   Turn off err/grad.   ShiftErr        ....    0.0010
 Zerner damping         CNVZerner       .... off
 Static damping         CNVDamp         .... on
   Fraction old density DampFac         ....    0.7000
   Max. Damping (<1)    DampMax         ....    0.9800
   Min. Damping (>=0)   DampMin         ....    0.0000
   Turn off err/grad.   DampErr         ....    0.1000
 Fernandez-Rico         CNVRico         .... off

SCF Procedure:
 Maximum # iterations   MaxIter         ....   125
 SCF integral mode      SCFMode         .... Direct
   Integral package                     .... SHARK and LIBINT hybrid scheme
 Reset frequency        DirectResetFreq ....    20
 Integral Threshold     Thresh          ....  1.000e-10 Eh
 Primitive CutOff       TCut            ....  1.000e-11 Eh

Convergence Tolerance:
 Convergence Check Mode ConvCheckMode   .... Total+1el-Energy
 Convergence forced     ConvForced      .... 0
 Energy Change          TolE            ....  1.000e-06 Eh
 1-El. energy change                    ....  1.000e-03 Eh
 Orbital Gradient       TolG            ....  5.000e-05
 Orbital Rotation angle TolX            ....  5.000e-05
 DIIS Error             TolErr          ....  1.000e-06


Diagonalization of the overlap matrix:
Smallest eigenvalue                        ... 6.774e-05
Time for diagonalization                   ...    0.013 sec
Threshold for overlap eigenvalues          ... 1.000e-08
Number of eigenvalues below threshold      ... 0
Time for construction of square roots      ...    0.003 sec
Total time needed                          ...    0.017 sec

Time for model grid setup =    0.229 sec

------------------------------
INITIAL GUESS: MODEL POTENTIAL
------------------------------
Loading Hartree-Fock densities                     ... done
Calculating cut-offs                               ... done
Initializing the effective Hamiltonian             ... done
Setting up the integral package (SHARK)            ... done
Starting the Coulomb interaction                   ... done (   0.2 sec)
Reading the grid                                   ... done
Mapping shells                                     ... done
Starting the XC term evaluation                    ... done (   0.3 sec)
  promolecular density results
     # of electrons  =     39.999001089
     EX              =    -33.964638460
     EC              =     -1.288618659
     EX+EC           =    -35.253257119
Transforming the Hamiltonian                       ... done (   0.0 sec)
Diagonalizing the Hamiltonian                      ... done (   0.0 sec)
Back transforming the eigenvectors                 ... done (   0.0 sec)
Now organizing SCF variables                       ... done
                      ------------------
                      INITIAL GUESS DONE (   0.7 sec)
                      ------------------
-------------------
DFT GRID GENERATION
-------------------

General Integration Accuracy     IntAcc      ... 4.388
Radial Grid Type                 RadialGrid  ... OptM3 with GC (2021)
Angular Grid (max. ang.)         AngularGrid ... 4 (Lebedev-302)
Angular grid pruning method      GridPruning ... 4 (adaptive)
Weight generation scheme         WeightScheme... Becke
Basis function cutoff            BFCut       ... 1.0000e-10
Integration weight cutoff        WCut        ... 1.0000e-14
Angular grids for H and He will be reduced by one unit
Partially contracted basis set               ... off
Rotationally invariant grid construction     ... off

Total number of grid points                  ...    43012
Total number of batches                      ...      676
Average number of points per batch           ...       63
Average number of grid points per atom       ...     5376
Time for grid setup =    0.603 sec

--------------
SCF ITERATIONS
--------------
ITER       Energy         Delta-E        Max-DP      RMS-DP      [F,P]     Damp
               ***  Starting incremental Fock matrix formation  ***
  0   -262.6732553164   0.000000000000 0.12721336  0.00208062  0.2269680 0.7000
  1   -262.7705592410  -0.097303924626 0.09678458  0.00140730  0.0598037 0.7000
                               ***Turning on DIIS***
  2   -262.7900270199  -0.019467778938 0.07468184  0.00165528  0.0393884 0.0000
  3   -262.8477228171  -0.057695797166 0.09674506  0.00124040  0.0352034 0.0000
  4   -262.8523545339  -0.004631716747 0.01056749  0.00022466  0.0277785 0.0000
  5   -262.8545034723  -0.002148938463 0.00232981  0.00005534  0.0083591 0.0000
                      *** Initiating the SOSCF procedure ***
                           *** Shutting down DIIS ***
                      *** Re-Reading the Fockian *** 
                      *** Removing any level shift *** 
ITER      Energy       Delta-E        Grad      Rot      Max-DP    RMS-DP
  6   -262.85470450  -0.0002010256  0.000334  0.000334  0.000332  0.000013
               *** Restarting incremental Fock matrix formation ***
  7   -262.85471024  -0.0000057393  0.000251  0.000838  0.000641  0.000014
  8   -262.85470633   0.0000039047  0.000694  0.000715  0.000495  0.000010
  9   -262.85471074  -0.0000044042  0.000065  0.000145  0.000214  0.000004
 10   -262.85471066   0.0000000769  0.000088  0.000088  0.000115  0.000002
                 **** Energy Check signals convergence ****
              ***Rediagonalizing the Fockian in SOSCF/NRSCF***

               *****************************************************
               *                     SUCCESS                       *
               *           SCF CONVERGED AFTER  11 CYCLES          *
               *****************************************************


----------------
TOTAL SCF ENERGY
----------------

Total Energy       :         -262.85471081 Eh           -7152.64031 eV

Components:
Nuclear Repulsion  :          163.03751026 Eh            4436.47620 eV
Electronic Energy  :         -425.89222107 Eh          -11589.11651 eV
One Electron Energy:         -676.20688697 Eh          -18400.52486 eV
Two Electron Energy:          250.31466589 Eh            6811.40834 eV

Virial components:
Potential Energy   :         -525.09815745 Eh          -14288.64728 eV
Kinetic Energy     :          262.24344663 Eh            7136.00697 eV
Virial Ratio       :            2.00233090


DFT components:
N(Alpha)           :       19.999992501979 electrons
N(Beta)            :       19.999992501979 electrons
N(Total)           :       39.999985003957 electrons
E(X)               :      -34.517174164843 Eh       
E(C)               :       -1.297526082554 Eh       
E(XC)              :      -35.814700247396 Eh       
DFET-embed. en.    :        0.000000000000 Eh       

---------------
SCF CONVERGENCE
---------------

  Last Energy change         ...   -1.5490e-07  Tolerance :   1.0000e-06
  Last MAX-Density change    ...    6.9141e-05  Tolerance :   1.0000e-05
  Last RMS-Density change    ...    8.5995e-07  Tolerance :   1.0000e-06
  Last Orbital Gradient      ...    6.8370e-06  Tolerance :   5.0000e-05
  Last Orbital Rotation      ...    1.1332e-05  Tolerance :   5.0000e-05

             **** THE GBW FILE WAS UPDATED (D.gbw) ****
             **** DENSITY D.scfp WAS UPDATED ****
             **** ENERGY FILE WAS UPDATED (D.en.tmp) ****
             **** THE GBW FILE WAS UPDATED (D.gbw) ****
             **** DENSITY D.scfp WAS UPDATED ****
----------------
ORBITAL ENERGIES
----------------

  NO   OCC          E(Eh)            E(eV) 
   0   2.0000     -14.013361      -381.3229 
   1   2.0000     -14.013357      -381.3228 
   2   2.0000      -9.980457      -271.5820 
   3   2.0000      -9.979781      -271.5636 
   4   2.0000      -9.951276      -270.7880 
   5   2.0000      -9.951271      -270.7878 
   6   2.0000      -0.866799       -23.5868 
   7   2.0000      -0.861248       -23.4358 
   8   2.0000      -0.796598       -21.6765 
   9   2.0000      -0.670212       -18.2374 
  10   2.0000      -0.538161       -14.6441 
  11   2.0000      -0.516127       -14.0445 
  12   2.0000      -0.433837       -11.8053 
  13   2.0000      -0.395403       -10.7595 
  14   2.0000      -0.356876        -9.7111 
  15   2.0000      -0.346103        -9.4179 
  16   2.0000      -0.340870        -9.2756 
  17   2.0000      -0.337913        -9.1951 
  18   2.0000      -0.332309        -9.0426 
  19   2.0000      -0.289467        -7.8768 
  20   0.0000      -0.149082        -4.0567 
  21   0.0000      -0.050262        -1.3677 
  22   0.0000      -0.041036        -1.1167 
  23   0.0000       0.004083         0.1111 
  24   0.0000       0.004658         0.1268 
  25   0.0000       0.010106         0.2750 
  26   0.0000       0.032717         0.8903 
  27   0.0000       0.037722         1.0265 
  28   0.0000       0.100336         2.7303 
  29   0.0000       0.105125         2.8606 
  30   0.0000       0.129605         3.5267 
  31   0.0000       0.134232         3.6526 
  32   0.0000       0.142617         3.8808 
  33   0.0000       0.160198         4.3592 
  34   0.0000       0.171823         4.6755 
  35   0.0000       0.181380         4.9356 
  36   0.0000       0.182175         4.9572 
  37   0.0000       0.199410         5.4262 
  38   0.0000       0.237933         6.4745 
  39   0.0000       0.248846         6.7714 
  40   0.0000       0.277558         7.5527 
  41   0.0000       0.286202         7.7880 
  42   0.0000       0.303872         8.2688 
  43   0.0000       0.315316         8.5802 
  44   0.0000       0.326142         8.8748 
  45   0.0000       0.327827         8.9206 
  46   0.0000       0.366239         9.9659 
  47   0.0000       0.402181        10.9439 
  48   0.0000       0.418342        11.3837 
  49   0.0000       0.420029        11.4296 
  50   0.0000       0.429594        11.6898 
  51   0.0000       0.458778        12.4840 
  52   0.0000       0.515502        14.0275 
  53   0.0000       0.536895        14.6097 
  54   0.0000       0.588947        16.0261 
  55   0.0000       0.622372        16.9356 
  56   0.0000       0.670731        18.2515 
  57   0.0000       0.700175        19.0527 
  58   0.0000       0.733120        19.9492 
  59   0.0000       0.744766        20.2661 
  60   0.0000       0.797628        21.7046 
  61   0.0000       0.800414        21.7804 
  62   0.0000       0.810905        22.0659 
  63   0.0000       0.864788        23.5321 
  64   0.0000       0.866781        23.5863 
  65   0.0000       0.886367        24.1193 
  66   0.0000       0.905074        24.6283 
  67   0.0000       0.945409        25.7259 
  68   0.0000       0.977322        26.5943 
  69   0.0000       0.985175        26.8080 
  70   0.0000       0.991641        26.9839 
  71   0.0000       1.044968        28.4350 
  72   0.0000       1.045214        28.4417 
  73   0.0000       1.060395        28.8548 
  74   0.0000       1.061703        28.8904 
  75   0.0000       1.097627        29.8680 
  76   0.0000       1.112171        30.2637 
  77   0.0000       1.119592        30.4656 
  78   0.0000       1.139934        31.0192 
  79   0.0000       1.203226        32.7414 
  80   0.0000       1.210373        32.9359 
  81   0.0000       1.226801        33.3829 
  82   0.0000       1.242142        33.8004 
  83   0.0000       1.268984        34.5308 
  84   0.0000       1.298452        35.3327 
  85   0.0000       1.309129        35.6232 
  86   0.0000       1.351110        36.7656 
  87   0.0000       1.366468        37.1835 
  88   0.0000       1.377491        37.4834 
  89   0.0000       1.422824        38.7170 
  90   0.0000       1.467493        39.9325 
  91   0.0000       1.473613        40.0990 
  92   0.0000       1.527267        41.5590 
  93   0.0000       1.549227        42.1566 
  94   0.0000       1.595689        43.4209 
  95   0.0000       1.618227        44.0342 
  96   0.0000       1.651511        44.9399 
  97   0.0000       1.683592        45.8129 
  98   0.0000       1.702989        46.3407 
  99   0.0000       1.721809        46.8528 
 100   0.0000       1.787597        48.6430 
 101   0.0000       1.790559        48.7236 
 102   0.0000       1.822007        49.5793 
 103   0.0000       1.848483        50.2998 
 104   0.0000       1.914114        52.0857 
 105   0.0000       1.919129        52.2222 
 106   0.0000       2.059364        56.0381 
 107   0.0000       2.118325        57.6426 
 108   0.0000       2.125158        57.8285 
 109   0.0000       2.172110        59.1061 
 110   0.0000       2.318194        63.0813 
 111   0.0000       2.379699        64.7549 
 112   0.0000       2.419359        65.8341 
 113   0.0000       2.502868        68.1065 
 114   0.0000       2.684258        73.0424 
 115   0.0000       2.763074        75.1871 
 116   0.0000       2.805053        76.3294 
 117   0.0000       2.821413        76.7745 
 118   0.0000       2.972772        80.8932 
 119   0.0000       3.063851        83.3716 
 120   0.0000       3.090492        84.0966 
 121   0.0000       3.093921        84.1899 
 122   0.0000       3.121897        84.9511 
 123   0.0000       3.127259        85.0971 
 124   0.0000       3.145748        85.6002 
 125   0.0000       3.178003        86.4779 
 126   0.0000       3.229069        87.8674 
 127   0.0000       3.239137        88.1414 
 128   0.0000       3.315726        90.2255 
 129   0.0000       3.364031        91.5399 
 130   0.0000       3.366900        91.6180 
 131   0.0000       3.387747        92.1853 
 132   0.0000       3.533491        96.1512 
 133   0.0000       3.560487        96.8858 
 134   0.0000       3.581896        97.4684 
 135   0.0000       3.600714        97.9804 
 136   0.0000       3.655093        99.4601 
 137   0.0000       3.655864        99.4811 
 138   0.0000       3.657008        99.5122 
 139   0.0000       3.658976        99.5658 
 140   0.0000       3.692938       100.4899 
 141   0.0000       3.707929       100.8979 
 142   0.0000       3.708893       100.9241 
 143   0.0000       3.781669       102.9044 
 144   0.0000       3.797208       103.3273 
 145   0.0000       3.825141       104.0874 
 146   0.0000       3.826853       104.1340 
 147   0.0000       3.839580       104.4803 
 148   0.0000       3.868996       105.2807 
 149   0.0000       3.915960       106.5587 
 150   0.0000       3.916243       106.5664 
 151   0.0000       3.935598       107.0931 
 152   0.0000       3.955453       107.6334 
 153   0.0000       3.967022       107.9482 
 154   0.0000       3.990433       108.5852 
 155   0.0000       4.011397       109.1557 
 156   0.0000       4.021202       109.4225 
 157   0.0000       4.033807       109.7655 
 158   0.0000       4.104746       111.6958 
 159   0.0000       4.105484       111.7159 
 160   0.0000       4.126927       112.2994 
 161   0.0000       4.179160       113.7207 
 162   0.0000       4.192279       114.0777 
 163   0.0000       4.212912       114.6392 
 164   0.0000       4.225720       114.9877 
 165   0.0000       4.228550       115.0647 
 166   0.0000       4.271600       116.2361 
 167   0.0000       4.273997       116.3014 
 168   0.0000       4.286993       116.6550 
 169   0.0000       4.370853       118.9370 
 170   0.0000       4.381175       119.2178 
 171   0.0000       4.385862       119.3454 
 172   0.0000       4.413518       120.0979 
 173   0.0000       4.424602       120.3995 
 174   0.0000       4.457169       121.2857 
 175   0.0000       4.484211       122.0216 
 176   0.0000       4.510869       122.7470 
 177   0.0000       4.523845       123.1001 
 178   0.0000       4.602663       125.2448 
 179   0.0000       4.604867       125.3048 
 180   0.0000       4.623215       125.8041 
 181   0.0000       4.684626       127.4752 
 182   0.0000       4.687058       127.5413 
 183   0.0000       4.722851       128.5153 
 184   0.0000       4.804330       130.7325 
 185   0.0000       4.870048       132.5207 
 186   0.0000       4.889243       133.0431 
 187   0.0000       4.930299       134.1602 
 188   0.0000       4.931418       134.1907 
 189   0.0000       4.932509       134.2204 
 190   0.0000       4.932606       134.2230 
 191   0.0000       5.003046       136.1398 
 192   0.0000       5.095570       138.6575 
 193   0.0000       5.194955       141.3619 
 194   0.0000       5.303478       144.3150 
 195   0.0000       5.365864       146.0126 
 196   0.0000       5.382844       146.4746 
 197   0.0000       5.426958       147.6750 
 198   0.0000       5.433309       147.8478 
 199   0.0000       5.447491       148.2338 
 200   0.0000       5.475013       148.9827 
 201   0.0000       5.577257       151.7649 
 202   0.0000       5.585080       151.9777 
 203   0.0000       5.625816       153.0862 
 204   0.0000       5.699919       155.1027 
 205   0.0000       5.750042       156.4666 
 206   0.0000       5.814661       158.2250 
 207   0.0000       5.817497       158.3021 
 208   0.0000       5.839583       158.9031 
 209   0.0000       5.842473       158.9818 
 210   0.0000       5.962221       162.2403 
 211   0.0000       5.971551       162.4942 
 212   0.0000       6.331168       172.2798 
 213   0.0000       6.494062       176.7124 
 214   0.0000       6.533868       177.7956 
 215   0.0000       6.695253       182.1871 
 216   0.0000       6.704596       182.4413 
 217   0.0000       6.764942       184.0834 
 218   0.0000       6.840047       186.1272 
 219   0.0000       6.939009       188.8200 
 220   0.0000       7.051625       191.8845 
 221   0.0000       7.103421       193.2939 
 222   0.0000       8.190517       222.8753 
 223   0.0000       8.310520       226.1407 
 224   0.0000      10.489799       285.4419 
 225   0.0000      10.994396       299.1727 
 226   0.0000      18.234033       496.1733 
 227   0.0000      18.350893       499.3532 
 228   0.0000      18.462668       502.3947 
 229   0.0000      18.472088       502.6511 
 230   0.0000      18.481166       502.8981 
 231   0.0000      18.523198       504.0418 
 232   0.0000      18.786510       511.2069 
 233   0.0000      18.795745       511.4582 
 234   0.0000      18.967367       516.1283 
 235   0.0000      19.286247       524.8055 
 236   0.0000      20.170967       548.8799 
 237   0.0000      20.617461       561.0296 
 238   0.0000      26.452763       719.8163 
 239   0.0000      26.461068       720.0423 
 240   0.0000      26.473156       720.3712 
 241   0.0000      26.477303       720.4840 
 242   0.0000      27.003415       734.8003 
 243   0.0000      27.010874       735.0032 

                    ********************************
                    * MULLIKEN POPULATION ANALYSIS *
                    ********************************

-----------------------
MULLIKEN ATOMIC CHARGES
-----------------------
   0 C :    0.022994
   1 C :   -0.007766
   2 C :   -0.007770
   3 C :    0.023012
   4 H :    0.094583
   5 H :    0.094588
   6 N :   -0.109824
   7 N :   -0.109818
Sum of atomic charges:    0.0000000

--------------------------------
MULLIKEN REDUCED ORBITAL CHARGES
--------------------------------
  0 C s       :     3.039524  s :     3.039524
      pz      :     0.942643  p :     2.860259
      px      :     0.975368
      py      :     0.942248
      dz2     :     0.008296  d :     0.066248
      dxz     :     0.016432
      dyz     :     0.006472
      dx2y2   :     0.020233
      dxy     :     0.014815
      f0      :     0.001043  f :     0.010974
      f+1     :     0.001527
      f-1     :     0.000689
      f+2     :     0.000793
      f-2     :     0.001912
      f+3     :     0.002898
      f-3     :     0.002112
  1 C s       :     3.114598  s :     3.114598
      pz      :     0.952231  p :     2.825147
      px      :     0.908217
      py      :     0.964700
      dz2     :     0.006332  d :     0.064078
      dxz     :     0.011804
      dyz     :     0.006302
      dx2y2   :     0.020204
      dxy     :     0.019435
      f0      :     0.000548  f :     0.003943
      f+1     :     0.001018
      f-1     :     0.000380
      f+2     :     0.000395
      f-2     :     0.000505
      f+3     :     0.000750
      f-3     :     0.000347
  2 C s       :     3.114590  s :     3.114590
      pz      :     0.952243  p :     2.825160
      px      :     0.908221
      py      :     0.964696
      dz2     :     0.006340  d :     0.064077
      dxz     :     0.011799
      dyz     :     0.006303
      dx2y2   :     0.020203
      dxy     :     0.019432
      f0      :     0.000548  f :     0.003943
      f+1     :     0.001018
      f-1     :     0.000380
      f+2     :     0.000395
      f-2     :     0.000505
      f+3     :     0.000750
      f-3     :     0.000347
  3 C s       :     3.039504  s :     3.039504
      pz      :     0.942569  p :     2.860260
      px      :     0.975447
      py      :     0.942245
      dz2     :     0.008332  d :     0.066249
      dxz     :     0.016423
      dyz     :     0.006498
      dx2y2   :     0.020207
      dxy     :     0.014789
      f0      :     0.001036  f :     0.010974
      f+1     :     0.001535
      f-1     :     0.000693
      f+2     :     0.000800
      f-2     :     0.001912
      f+3     :     0.002890
      f-3     :     0.002109
  4 H s       :     0.861049  s :     0.861049
      pz      :     0.009282  p :     0.042192
      px      :     0.007064
      py      :     0.025847
      dz2     :     0.000264  d :     0.002175
      dxz     :     0.000022
      dyz     :     0.000573
      dx2y2   :     0.000758
      dxy     :     0.000559
  5 H s       :     0.861043  s :     0.861043
      pz      :     0.009283  p :     0.042194
      px      :     0.007062
      py      :     0.025849
      dz2     :     0.000264  d :     0.002176
      dxz     :     0.000022
      dyz     :     0.000573
      dx2y2   :     0.000759
      dxy     :     0.000559
  6 N s       :     3.684921  s :     3.684921
      pz      :     1.047200  p :     3.374778
      px      :     1.208832
      py      :     1.118746
      dz2     :     0.005140  d :     0.046806
      dxz     :     0.011045
      dyz     :     0.005182
      dx2y2   :     0.014925
      dxy     :     0.010514
      f0      :     0.000280  f :     0.003319
      f+1     :     0.000459
      f-1     :     0.000215
      f+2     :     0.000283
      f-2     :     0.000560
      f+3     :     0.001096
      f-3     :     0.000426
  7 N s       :     3.684915  s :     3.684915
      pz      :     1.046880  p :     3.374778
      px      :     1.209200
      py      :     1.118698
      dz2     :     0.005093  d :     0.046805
      dxz     :     0.011076
      dyz     :     0.005166
      dx2y2   :     0.014941
      dxy     :     0.010530
      f0      :     0.000284  f :     0.003319
      f+1     :     0.000454
      f-1     :     0.000213
      f+2     :     0.000280
      f-2     :     0.000562
      f+3     :     0.001100
      f-3     :     0.000426


                     *******************************
                     * LOEWDIN POPULATION ANALYSIS *
                     *******************************

----------------------
LOEWDIN ATOMIC CHARGES
----------------------
   0 C :   -0.087554
   1 C :    0.001148
   2 C :    0.001142
   3 C :   -0.087550
   4 H :    0.063224
   5 H :    0.063229
   6 N :    0.023183
   7 N :    0.023178

-------------------------------
LOEWDIN REDUCED ORBITAL CHARGES
-------------------------------
  0 C s       :     2.841316  s :     2.841316
      pz      :     0.913350  p :     2.946998
      px      :     1.073478
      py      :     0.960169
      dz2     :     0.032254  d :     0.262915
      dxz     :     0.058107
      dyz     :     0.025225
      dx2y2   :     0.074845
      dxy     :     0.072484
      f0      :     0.003552  f :     0.036326
      f+1     :     0.004756
      f-1     :     0.002128
      f+2     :     0.002363
      f-2     :     0.006266
      f+3     :     0.007615
      f-3     :     0.009646
  1 C s       :     2.784343  s :     2.784343
      pz      :     0.902940  p :     2.952552
      px      :     1.002723
      py      :     1.046890
      dz2     :     0.023534  d :     0.240246
      dxz     :     0.040799
      dyz     :     0.019782
      dx2y2   :     0.086363
      dxy     :     0.069768
      f0      :     0.001689  f :     0.021711
      f+1     :     0.002400
      f-1     :     0.001934
      f+2     :     0.002473
      f-2     :     0.003353
      f+3     :     0.005673
      f-3     :     0.004188
  2 C s       :     2.784337  s :     2.784337
      pz      :     0.902973  p :     2.952566
      px      :     1.002694
      py      :     1.046899
      dz2     :     0.023545  d :     0.240242
      dxz     :     0.040792
      dyz     :     0.019783
      dx2y2   :     0.086364
      dxy     :     0.069758
      f0      :     0.001688  f :     0.021712
      f+1     :     0.002401
      f-1     :     0.001936
      f+2     :     0.002474
      f-2     :     0.003353
      f+3     :     0.005672
      f-3     :     0.004188
  3 C s       :     2.841309  s :     2.841309
      pz      :     0.913714  p :     2.946996
      px      :     1.073069
      py      :     0.960213
      dz2     :     0.032314  d :     0.262918
      dxz     :     0.058136
      dyz     :     0.025338
      dx2y2   :     0.074749
      dxy     :     0.072380
      f0      :     0.003551  f :     0.036326
      f+1     :     0.004754
      f-1     :     0.002130
      f+2     :     0.002384
      f-2     :     0.006297
      f+3     :     0.007595
      f-3     :     0.009616
  4 H s       :     0.793610  s :     0.793610
      pz      :     0.030388  p :     0.124304
      px      :     0.025327
      py      :     0.068589
      dz2     :     0.002007  d :     0.018862
      dxz     :     0.000110
      dyz     :     0.005437
      dx2y2   :     0.005753
      dxy     :     0.005556
  5 H s       :     0.793604  s :     0.793604
      pz      :     0.030391  p :     0.124304
      px      :     0.025322
      py      :     0.068592
      dz2     :     0.002006  d :     0.018863
      dxz     :     0.000109
      dyz     :     0.005438
      dx2y2   :     0.005753
      dxy     :     0.005556
  6 N s       :     3.347446  s :     3.347446
      pz      :     1.040328  p :     3.513536
      px      :     1.320424
      py      :     1.152784
      dz2     :     0.012086  d :     0.096527
      dxz     :     0.019988
      dyz     :     0.009224
      dx2y2   :     0.024885
      dxy     :     0.030344
      f0      :     0.001939  f :     0.019308
      f+1     :     0.002491
      f-1     :     0.001097
      f+2     :     0.001212
      f-2     :     0.003370
      f+3     :     0.003512
      f-3     :     0.005687
  7 N s       :     3.347441  s :     3.347441
      pz      :     1.039643  p :     3.513545
      px      :     1.321194
      py      :     1.152708
      dz2     :     0.012073  d :     0.096528
      dxz     :     0.019951
      dyz     :     0.009161
      dx2y2   :     0.024942
      dxy     :     0.030401
      f0      :     0.001933  f :     0.019309
      f+1     :     0.002501
      f-1     :     0.001099
      f+2     :     0.001199
      f-2     :     0.003341
      f+3     :     0.003523
      f-3     :     0.005712


                      *****************************
                      * MAYER POPULATION ANALYSIS *
                      *****************************

  NA   - Mulliken gross atomic population
  ZA   - Total nuclear charge
  QA   - Mulliken gross atomic charge
  VA   - Mayer's total valence
  BVA  - Mayer's bonded valence
  FA   - Mayer's free valence

  ATOM       NA         ZA         QA         VA         BVA        FA
  0 C      5.9770     6.0000     0.0230     3.9922     3.9922     0.0000
  1 C      6.0078     6.0000    -0.0078     3.8537     3.8537     0.0000
  2 C      6.0078     6.0000    -0.0078     3.8538     3.8538     0.0000
  3 C      5.9770     6.0000     0.0230     3.9922     3.9922     0.0000
  4 H      0.9054     1.0000     0.0946     1.0156     1.0156    -0.0000
  5 H      0.9054     1.0000     0.0946     1.0156     1.0156    -0.0000
  6 N      7.1098     7.0000    -0.1098     3.1116     3.1116     0.0000
  7 N      7.1098     7.0000    -0.1098     3.1116     3.1116    -0.0000

  Mayer bond orders larger than 0.100000
B(  0-C ,  1-C ) :   1.0239 B(  0-C ,  7-N ) :   2.9585 B(  1-C ,  2-C ) :   1.7352 
B(  1-C ,  4-H ) :   0.9925 B(  2-C ,  3-C ) :   1.0239 B(  2-C ,  5-H ) :   0.9925 
B(  3-C ,  6-N ) :   2.9585 

-------
TIMINGS
-------

Total SCF time: 0 days 0 hours 0 min 18 sec 

Total time                  ....      18.973 sec
Sum of individual times     ....      18.742 sec  ( 98.8%)

Fock matrix formation       ....      17.188 sec  ( 90.6%)
  Split-RI-J                ....       4.516 sec  ( 26.3% of F)
  XC integration            ....      12.634 sec  ( 73.5% of F)
    Basis function eval.    ....       3.800 sec  ( 30.1% of XC)
    Density eval.           ....       3.474 sec  ( 27.5% of XC)
    XC-Functional eval.     ....       0.800 sec  (  6.3% of XC)
    XC-Potential eval.      ....       4.139 sec  ( 32.8% of XC)
Diagonalization             ....       0.114 sec  (  0.6%)
Density matrix formation    ....       0.009 sec  (  0.0%)
Population analysis         ....       0.010 sec  (  0.1%)
Initial guess               ....       0.496 sec  (  2.6%)
Orbital Transformation      ....       0.000 sec  (  0.0%)
Orbital Orthonormalization  ....       0.000 sec  (  0.0%)
DIIS solution               ....       0.039 sec  (  0.2%)
SOSCF solution              ....       0.054 sec  (  0.3%)
Grid generation             ....       0.832 sec  (  4.4%)

Maximum memory used throughout the entire SCF-calculation: 71.6 MB

-------------------------   --------------------
FINAL SINGLE POINT ENERGY      -262.854710814681
-------------------------   --------------------


                            ***************************************
                            *     ORCA property calculations      *
                            ***************************************

                                    ---------------------
                                    Active property flags
                                    ---------------------
   (+) Dipole Moment
   (+) Chemical Shifts
   (+) Nuclear properties (Hyperfine,Quadrupole)


------------------------------------------------------------------------------
                       ORCA ELECTRIC PROPERTIES CALCULATION
------------------------------------------------------------------------------

Dipole Moment Calculation                       ... on
Quadrupole Moment Calculation                   ... off
Polarizability Calculation                      ... off
GBWName                                         ... D.gbw
Electron density                                ... D.scfp
The origin for moment calculation is the CENTER OF MASS  = (-10.126108,  8.439786  3.979770)

-------------
DIPOLE MOMENT
-------------
                                X             Y             Z
Electronic contribution:      0.00040       0.00002       0.00044
Nuclear contribution   :      0.00034      -0.00016       0.00175
                        -----------------------------------------
Total Dipole Moment    :      0.00074      -0.00013       0.00219
                        -----------------------------------------
Magnitude (a.u.)       :      0.00232
Magnitude (Debye)      :      0.00589



--------------------
Rotational spectrum 
--------------------
 
Rotational constants in cm-1:     1.564998     0.049996     0.048448 
Rotational constants in MHz : 46917.466014  1498.839737  1452.440541 

 Dipole components along the rotational axes: 
x,y,z [a.u.] :     0.000047    -0.000092     0.002315 
x,y,z [Debye]:     0.000120    -0.000233     0.005885 

 
------------------------------------------------------------------------------
                                ORCA EPR/NMR CALCULATION
------------------------------------------------------------------------------

GBWName                      ... D.gbw
Electron density             ... D.scfp
Spin density                 ... D.scfr
Treatment of gauge           ... GIAO (approximations 1/2el = 0,0)
Details of the CP(SCF) procedure:
       Solver   = POPLE   
       MaxIter  =    64   
       Tolerance=    1.000e-03
       Op-0     =   0- 19 =>  20-243
Multiplicity                 ... 1
g-tensor                     ... 0
NMR chemical shifts          ... 1
NMR spin-spin couplings      ... 0
NMR spectrum                 ... 0
Number of nuclei for epr/nmr ... 8
   Nucleus:   0C 
       Hyperfine : Isotope=   13 I=   0.500 P= 134.188
       Quadrupole: Isotope=   13 I=   0.500 Q=   0.000
       Spin-Orbit: Zeff=   3.600
       Nuclear Spin-Spin: Gn=   0.000
       EPRNMR Input: 
       rho(0)=N f(grad)=N a(iso)=N a(dip)=N a(orb)=N sigma(nmr)=Y spin-spin(nmr)=all-N,DSO-N,PSO-N,FC-N,SD-N
   Nucleus:   1C 
       Hyperfine : Isotope=   13 I=   0.500 P= 134.188
       Quadrupole: Isotope=   13 I=   0.500 Q=   0.000
       Spin-Orbit: Zeff=   3.600
       Nuclear Spin-Spin: Gn=   0.000
       EPRNMR Input: 
       rho(0)=N f(grad)=N a(iso)=N a(dip)=N a(orb)=N sigma(nmr)=Y spin-spin(nmr)=all-N,DSO-N,PSO-N,FC-N,SD-N
   Nucleus:   2C 
       Hyperfine : Isotope=   13 I=   0.500 P= 134.188
       Quadrupole: Isotope=   13 I=   0.500 Q=   0.000
       Spin-Orbit: Zeff=   3.600
       Nuclear Spin-Spin: Gn=   0.000
       EPRNMR Input: 
       rho(0)=N f(grad)=N a(iso)=N a(dip)=N a(orb)=N sigma(nmr)=Y spin-spin(nmr)=all-N,DSO-N,PSO-N,FC-N,SD-N
   Nucleus:   3C 
       Hyperfine : Isotope=   13 I=   0.500 P= 134.188
       Quadrupole: Isotope=   13 I=   0.500 Q=   0.000
       Spin-Orbit: Zeff=   3.600
       Nuclear Spin-Spin: Gn=   0.000
       EPRNMR Input: 
       rho(0)=N f(grad)=N a(iso)=N a(dip)=N a(orb)=N sigma(nmr)=Y spin-spin(nmr)=all-N,DSO-N,PSO-N,FC-N,SD-N
   Nucleus:   4H 
       Hyperfine : Isotope=    1 I=   0.500 P= 533.552
       Quadrupole: Isotope=    2 I=   1.000 Q=   0.003
       Spin-Orbit: Zeff=   1.000
       Nuclear Spin-Spin: Gn=   0.000
       EPRNMR Input: 
       rho(0)=N f(grad)=N a(iso)=N a(dip)=N a(orb)=N sigma(nmr)=Y spin-spin(nmr)=all-N,DSO-N,PSO-N,FC-N,SD-N
   Nucleus:   5H 
       Hyperfine : Isotope=    1 I=   0.500 P= 533.552
       Quadrupole: Isotope=    2 I=   1.000 Q=   0.003
       Spin-Orbit: Zeff=   1.000
       Nuclear Spin-Spin: Gn=   0.000
       EPRNMR Input: 
       rho(0)=N f(grad)=N a(iso)=N a(dip)=N a(orb)=N sigma(nmr)=Y spin-spin(nmr)=all-N,DSO-N,PSO-N,FC-N,SD-N
   Nucleus:   6N 
       Hyperfine : Isotope=   14 I=   1.000 P=  38.571
       Quadrupole: Isotope=   14 I=   1.000 Q=   0.020
       Spin-Orbit: Zeff=   4.550
       Nuclear Spin-Spin: Gn=   0.000
       EPRNMR Input: 
       rho(0)=N f(grad)=N a(iso)=N a(dip)=N a(orb)=N sigma(nmr)=Y spin-spin(nmr)=all-N,DSO-N,PSO-N,FC-N,SD-N
   Nucleus:   7N 
       Hyperfine : Isotope=   14 I=   1.000 P=  38.571
       Quadrupole: Isotope=   14 I=   1.000 Q=   0.020
       Spin-Orbit: Zeff=   4.550
       Nuclear Spin-Spin: Gn=   0.000
       EPRNMR Input: 
       rho(0)=N f(grad)=N a(iso)=N a(dip)=N a(orb)=N sigma(nmr)=Y spin-spin(nmr)=all-N,DSO-N,PSO-N,FC-N,SD-N
Forming RHS of the CP-SCF equations         ... 
Calculating right hand sides for GIAO treatment        ... 
  Entering RightHandSide GIAO. ScalHFX=    0.0000 NeedHFX=0
     -> 1-electron GIAO integrals will be done analytically
     -> RI used in SCF. Same chosen for GIAO calculation.
     Making grid for GIAO integrations   ...

GRID GIAO
---------

General Integration Accuracy     IntAcc      ... 4.388
Radial Grid Type                 RadialGrid  ... OptM3 with GC (2021)
Angular Grid (max. ang.)         AngularGrid ... 4 (Lebedev-302)
Angular grid pruning method      GridPruning ... 4 (adaptive)
Weight generation scheme         WeightScheme... Becke
Basis function cutoff            BFCut       ... 1.0000e-10
Integration weight cutoff        WCut        ... 1.0000e-14
Angular grids for H and He will be reduced by one unit
Partially contracted basis set               ... off
Rotationally invariant grid construction     ... off

Total number of grid points                  ...    43012
Total number of batches                      ...      676
Average number of points per batch           ...       63
Average number of grid points per atom       ...     5376

  One-electron GIAO integrals (SHARK)     ... done
  Calculating G(B)[P]                     ... (RI-J: SHARK-ok) (copy J to G-ok) => dG/dB done
  DFT XC-terms                            ... done
  Extracting occupied and virtual blocks  ... 
  Operator  0  NO=  20 NV= 224 
  Transforming and RHS contribution       ... done
  Adding eps_i * S(B)_ai terms            ... done

  GIAO profiling information: 
    Total GIAO time               ...      13.2 sec
       GIAO 1-electron integrals  ...       0.1 sec (  0.4%)
       GIAO RI-J                  ...       2.8 sec ( 21.2%)
       GIAO XC-terms              ...       9.8 sec ( 74.2%)
       Right hand side assembly   ...       0.0 sec (  0.1%)

  GIAO right hand side done


Forming final perturbed densities           ... done
Transforming perturbed density to AO basis  ... done

Magnetic field perturbation calculated in 13.236 sec

---------------
CHEMICAL SHIFTS
---------------

Note: using conversion factor for au to ppm alpha^2/2 =   26.625677252 
GIAO: Analytic para- and diamagnetic shielding integrals (SHARK)       ...done
 --------------
 Nucleus   0C :
 --------------

Diamagnetic contribution to the shielding tensor (ppm) : 
           273.410         16.948       -11.010
            18.099        257.791        -4.248
           -11.386         -5.009       240.775

Paramagnetic contribution to the shielding tensor (ppm): 
          -103.727        127.108       -58.841
           124.543       -221.284       -40.207
           -58.378        -39.827      -273.707

Total shielding tensor (ppm): 
           169.684        144.056       -69.851
           142.642         36.507       -44.456
           -69.764        -44.835       -32.932


 Diagonalized sT*s matrix:
 
 sDSO           237.267          246.905          287.804  iso=     257.325
 sPSO          -291.917         -301.889           -4.912  iso=    -199.572
        ---------------  ---------------  ---------------
 Total          -54.651          -54.983          282.892  iso=      57.753

 --------------
 Nucleus   1C :
 --------------

Diamagnetic contribution to the shielding tensor (ppm) : 
           261.974          2.474       -18.979
             0.900        257.418         2.694
           -19.296          3.504       217.527

Paramagnetic contribution to the shielding tensor (ppm): 
          -218.782        -74.346        54.417
           -54.501       -281.578         0.585
            56.413          6.581       -75.130

Total shielding tensor (ppm): 
            43.192        -71.872        35.438
           -53.601        -24.160         3.279
            37.117         10.086       142.397


 Diagonalized sT*s matrix:
 
 sDSO           267.947          258.798          210.175  iso=     245.640
 sPSO          -284.835         -235.886          -54.770  iso=    -191.830
        ---------------  ---------------  ---------------
 Total          -16.888           22.912          155.405  iso=      53.810

 --------------
 Nucleus   2C :
 --------------

Diamagnetic contribution to the shielding tensor (ppm) : 
           267.868          0.977        -3.130
             0.297        257.573         1.052
            -3.035         -0.632       261.299

Paramagnetic contribution to the shielding tensor (ppm): 
          -224.655        -72.875        38.542
           -53.922       -281.728         2.214
            40.175         10.636      -118.886

Total shielding tensor (ppm): 
            43.214        -71.898        35.412
           -53.626        -24.155         3.266
            37.140         10.005       142.412


 Diagonalized sT*s matrix:
 
 sDSO           267.948          258.804          259.987  iso=     262.247
 sPSO          -284.900         -235.811         -104.558  iso=    -208.423
        ---------------  ---------------  ---------------
 Total          -16.952           22.993          155.430  iso=      53.824

 --------------
 Nucleus   3C :
 --------------

Diamagnetic contribution to the shielding tensor (ppm) : 
           274.821         16.727        -6.799
            17.186        257.997        -6.757
            -5.837         -6.025       256.867

Paramagnetic contribution to the shielding tensor (ppm): 
          -105.675        127.168       -63.622
           125.341       -221.435       -38.149
           -64.730        -39.409      -289.263

Total shielding tensor (ppm): 
           169.146        143.895       -70.421
           142.528         36.562       -44.906
           -70.567        -45.434       -32.396


 Diagonalized sT*s matrix:
 
 sDSO           254.955          246.927          287.803  iso=     263.228
 sPSO          -309.556         -301.907           -4.910  iso=    -205.458
        ---------------  ---------------  ---------------
 Total          -54.601          -54.980          282.893  iso=      57.771

 --------------
 Nucleus   4H :
 --------------

Diamagnetic contribution to the shielding tensor (ppm) : 
            22.087          0.491       -17.790
            -0.457         40.574         4.055
           -18.529          6.183       -20.246

Paramagnetic contribution to the shielding tensor (ppm): 
             5.477         -2.559        15.946
             0.746        -16.228        -4.051
            16.909         -5.289        44.107

Total shielding tensor (ppm): 
            27.564         -2.068        -1.844
             0.289         24.346         0.004
            -1.620          0.893        23.861


 Diagonalized sT*s matrix:
 
 sDSO           -27.278           39.212           30.481  iso=      14.138
 sPSO            50.446          -15.093           -1.997  iso=      11.119
        ---------------  ---------------  ---------------
 Total           23.169           24.119           28.484  iso=      25.257

 --------------
 Nucleus   5H :
 --------------

Diamagnetic contribution to the shielding tensor (ppm) : 
            33.689         -2.434        13.205
            -1.855         40.928         0.312
            13.919         -2.005        66.449

Paramagnetic contribution to the shielding tensor (ppm): 
            -6.127          0.359       -15.051
             2.143        -16.582        -0.307
           -15.543          2.888       -42.590

Total shielding tensor (ppm): 
            27.562         -2.075        -1.845
             0.288         24.346         0.004
            -1.624          0.883        23.859


 Diagonalized sT*s matrix:
 
 sDSO            71.368           39.211           30.486  iso=      47.022
 sPSO           -48.202          -15.094           -2.002  iso=     -21.766
        ---------------  ---------------  ---------------
 Total           23.166           24.117           28.484  iso=      25.256

 --------------
 Nucleus   6N :
 --------------

Diamagnetic contribution to the shielding tensor (ppm) : 
           338.973          4.480        -3.379
             5.150        334.421        -2.214
            -2.902         -1.259       331.018

Paramagnetic contribution to the shielding tensor (ppm): 
          -286.076        181.724       -77.385
           179.607       -433.354       -56.805
           -77.984        -58.268      -515.230

Total shielding tensor (ppm): 
            52.897        186.204       -80.764
           184.756        -98.933       -59.019
           -80.885        -59.527      -184.212


 Diagonalized sT*s matrix:
 
 sDSO           343.075          329.959          331.377  iso=     334.804
 sPSO          -140.355         -538.923         -555.381  iso=    -411.553
        ---------------  ---------------  ---------------
 Total          202.720         -208.964         -224.004  iso=     -76.749

 --------------
 Nucleus   7N :
 --------------

Diamagnetic contribution to the shielding tensor (ppm) : 
           339.827          4.222        -1.241
             5.471        334.347        -1.333
            -1.432         -1.757       334.519

Paramagnetic contribution to the shielding tensor (ppm): 
          -286.421        182.082       -78.783
           179.434       -433.332       -57.124
           -78.923        -57.377      -519.215

Total shielding tensor (ppm): 
            53.406        186.303       -80.024
           184.905        -98.985       -58.456
           -80.355        -59.134      -184.696


 Diagonalized sT*s matrix:
 
 sDSO           343.059          334.267          331.367  iso=     336.231
 sPSO          -140.526         -543.092         -555.349  iso=    -412.989
        ---------------  ---------------  ---------------
 Total          202.532         -208.824         -223.982  iso=     -76.758



--------------------------------
CHEMICAL SHIELDING SUMMARY (ppm)
--------------------------------


  Nucleus  Element    Isotropic     Anisotropy
  -------  -------  ------------   ------------
      0       C           57.753        337.709 
      1       C           53.810        152.393 
      2       C           53.824        152.409 
      3       C           57.771        337.683 
      4       H           25.257          4.840 
      5       H           25.256          4.842 
      6       N          -76.749       -220.882 
      7       N          -76.758       -220.836 



Maximum memory used throughout the entire EPRNMR-calculation: 71.4 MB

Timings for individual modules:

Sum of individual times         ...       33.885 sec (=   0.565 min)
GTO integral calculation        ...        0.415 sec (=   0.007 min)   1.2 %
SCF iterations                  ...       19.006 sec (=   0.317 min)  56.1 %
EPR/NMR calculation             ...       14.463 sec (=   0.241 min)  42.7 %
                             ****ORCA TERMINATED NORMALLY****
TOTAL RUN TIME: 0 days 0 hours 0 minutes 34 seconds 114 msec
