
                                 *****************
                                 * O   R   C   A *
                                 *****************

                                            #,                                       
                                            ###                                      
                                            ####                                     
                                            #####                                    
                                            ######                                   
                                           ########,                                 
                                     ,,################,,,,,                         
                               ,,#################################,,                 
                          ,,##########################################,,             
                       ,#########################################, ''#####,          
                    ,#############################################,,   '####,        
                  ,##################################################,,,,####,       
                ,###########''''           ''''###############################       
              ,#####''   ,,,,##########,,,,          '''####'''          '####       
            ,##' ,,,,###########################,,,                        '##       
           ' ,,###''''                  '''############,,,                           
         ,,##''                                '''############,,,,        ,,,,,,###''
      ,#''                                            '''#######################'''  
     '                                                          ''''####''''         
             ,#######,   #######,   ,#######,      ##                                
            ,#'     '#,  ##    ##  ,#'     '#,    #''#        ######   ,####,        
            ##       ##  ##   ,#'  ##            #'  '#       #        #'  '#        
            ##       ##  #######   ##           ,######,      #####,   #    #        
            '#,     ,#'  ##    ##  '#,     ,#' ,#      #,         ##   #,  ,#        
             '#######'   ##     ##  '#######'  #'      '#     #####' # '####'        



                  #######################################################
                  #                        -***-                        #
                  #          Department of theory and spectroscopy      #
                  #    Directorship and core code : Frank Neese         #
                  #        Max Planck Institute fuer Kohlenforschung    #
                  #                Kaiser Wilhelm Platz 1               #
                  #                 D-45470 Muelheim/Ruhr               #
                  #                      Germany                        #
                  #                                                     #
                  #                  All rights reserved                #
                  #                        -***-                        #
                  #######################################################


                         Program Version 5.0.2 -  RELEASE  -


 With contributions from (in alphabetic order):
   Daniel Aravena         : Magnetic Suceptibility
   Michael Atanasov       : Ab Initio Ligand Field Theory (pilot matlab implementation)
   Alexander A. Auer      : GIAO ZORA, VPT2 properties, NMR spectrum
   Ute Becker             : Parallelization
   Giovanni Bistoni       : ED, misc. LED, open-shell LED, HFLD
   Martin Brehm           : Molecular dynamics
   Dmytro Bykov           : SCF Hessian
   Vijay G. Chilkuri      : MRCI spin determinant printing, contributions to CSF-ICE
   Dipayan Datta          : RHF DLPNO-CCSD density
   Achintya Kumar Dutta   : EOM-CC, STEOM-CC
   Dmitry Ganyushin       : Spin-Orbit,Spin-Spin,Magnetic field MRCI
   Miquel Garcia          : C-PCM and meta-GGA Hessian, CC/C-PCM, Gaussian charge scheme
   Yang Guo               : DLPNO-NEVPT2, F12-NEVPT2, CIM, IAO-localization
   Andreas Hansen         : Spin unrestricted coupled pair/coupled cluster methods
   Benjamin Helmich-Paris : MC-RPA, TRAH-SCF, COSX integrals
   Lee Huntington         : MR-EOM, pCC
   Robert Izsak           : Overlap fitted RIJCOSX, COSX-SCS-MP3, EOM
   Marcus Kettner         : VPT2
   Christian Kollmar      : KDIIS, OOCD, Brueckner-CCSD(T), CCSD density, CASPT2, CASPT2-K
   Simone Kossmann        : Meta GGA functionals, TD-DFT gradient, OOMP2, MP2 Hessian
   Martin Krupicka        : Initial AUTO-CI
   Lucas Lang             : DCDCAS
   Marvin Lechner         : AUTO-CI (C++ implementation), FIC-MRCC
   Dagmar Lenk            : GEPOL surface, SMD
   Dimitrios Liakos       : Extrapolation schemes; Compound Job, initial MDCI parallelization
   Dimitrios Manganas     : Further ROCIS development; embedding schemes
   Dimitrios Pantazis     : SARC Basis sets
   Anastasios Papadopoulos: AUTO-CI, single reference methods and gradients
   Taras Petrenko         : DFT Hessian,TD-DFT gradient, ASA, ECA, R-Raman, ABS, FL, XAS/XES, NRVS
   Peter Pinski           : DLPNO-MP2, DLPNO-MP2 Gradient
   Christoph Reimann      : Effective Core Potentials
   Marius Retegan         : Local ZFS, SOC
   Christoph Riplinger    : Optimizer, TS searches, QM/MM, DLPNO-CCSD(T), (RO)-DLPNO pert. Triples
   Tobias Risthaus        : Range-separated hybrids, TD-DFT gradient, RPA, STAB
   Michael Roemelt        : Original ROCIS implementation
   Masaaki Saitow         : Open-shell DLPNO-CCSD energy and density
   Barbara Sandhoefer     : DKH picture change effects
   Avijit Sen             : IP-ROCIS
   Kantharuban Sivalingam : CASSCF convergence, NEVPT2, FIC-MRCI
   Bernardo de Souza      : ESD, SOC TD-DFT
   Georgi Stoychev        : AutoAux, RI-MP2 NMR, DLPNO-MP2 response
   Willem Van den Heuvel  : Paramagnetic NMR
   Boris Wezisla          : Elementary symmetry handling
   Frank Wennmohs         : Technical directorship


 We gratefully acknowledge several colleagues who have allowed us to
 interface, adapt or use parts of their codes:
   Stefan Grimme, W. Hujo, H. Kruse, P. Pracht,  : VdW corrections, initial TS optimization,
                  C. Bannwarth, S. Ehlert          DFT functionals, gCP, sTDA/sTD-DF
   Ed Valeev, F. Pavosevic, A. Kumar             : LibInt (2-el integral package), F12 methods
   Garnet Chan, S. Sharma, J. Yang, R. Olivares  : DMRG
   Ulf Ekstrom                                   : XCFun DFT Library
   Mihaly Kallay                                 : mrcc  (arbitrary order and MRCC methods)
   Jiri Pittner, Ondrej Demel                    : Mk-CCSD
   Frank Weinhold                                : gennbo (NPA and NBO analysis)
   Christopher J. Cramer and Donald G. Truhlar   : smd solvation model
   Lars Goerigk                                  : TD-DFT with DH, B97 family of functionals
   V. Asgeirsson, H. Jonsson                     : NEB implementation
   FAccTs GmbH                                   : IRC, NEB, NEB-TS, DLPNO-Multilevel, CI-OPT
                                                   MM, QMMM, 2- and 3-layer-ONIOM, Crystal-QMMM,
                                                   LR-CPCM, SF, NACMEs, symmetry and pop. for TD-DFT,
                                                   nearIR, NL-DFT gradient (VV10), updates on ESD,
                                                   ML-optimized integration grids
   S Lehtola, MJT Oliveira, MAL Marques          : LibXC Library
   Liviu Ungur et al                             : ANISO software


 Your calculation uses the libint2 library for the computation of 2-el integrals
 For citations please refer to: http://libint.valeyev.net

 Your ORCA version has been built with support for libXC version: 5.1.0
 For citations please refer to: https://tddft.org/programs/libxc/

 This ORCA versions uses:
   CBLAS   interface :  Fast vector & matrix operations
   LAPACKE interface :  Fast linear algebra routines
   SCALAPACK package :  Parallel linear algebra routines
   Shared memory     :  Shared parallel matrices
   BLAS/LAPACK       :  OpenBLAS 0.3.15  USE64BITINT DYNAMIC_ARCH NO_AFFINITY Haswell SINGLE_THREADED
        Core in use  :  Haswell
   Copyright (c) 2011-2014, The OpenBLAS Project




***************************************
The coordinates will be read from file: OPT_Ar-4.xyz
***************************************



Information: The global flag for chemical shieldings has been found
             ==>> will calculate the chemical shieldings for all atoms in the system

================================================================================

----- Orbital basis set information -----
Your calculation utilizes the basis: pcSseg-2
   F. Jensen, J. Chem. Theory Comput. 11, 132 (2015).

----- AuxJ basis set information -----
Your calculation utilizes the auxiliary basis: def2/J
   F. Weigend, Phys. Chem. Chem. Phys. 8, 1057 (2006).

================================================================================
                                        WARNINGS
                       Please study these warnings very carefully!
================================================================================


INFO   : the flag for use of the SHARK integral package has been found!

================================================================================
                                       INPUT FILE
================================================================================
NAME = Ar-4.inp
|  1> !PBE RI pcSseg-2 def2/J NMR
|  2> 
|  3> *xyzfile 1 1 OPT_Ar-4.xyz
|  4> 
|  5> 
|  6>                          ****END OF INPUT****
================================================================================

                       ****************************
                       * Single Point Calculation *
                       ****************************

---------------------------------
CARTESIAN COORDINATES (ANGSTROEM)
---------------------------------
  C      3.513574  -16.925106   -3.084155
  C      2.210886  -17.061252   -2.620868
  C      4.261868  -15.764700   -3.235570
  C      3.893299  -14.454176   -2.959211
  C      2.684106  -13.979796   -2.466776
  C      1.544713  -14.699098   -2.128835
  C      1.334422  -16.070666   -2.196515
  H      4.648700  -13.702782   -3.154250
  H      2.621239  -12.907361   -2.328220
  H      0.710584  -14.113240   -1.762335
  H      0.358025  -16.412744   -1.875566
  H      1.827978  -18.073939   -2.586509
  H      4.011275  -17.845662   -3.363825
  H      5.266352  -15.899537   -3.617864

----------------------------
CARTESIAN COORDINATES (A.U.)
----------------------------
  NO LB      ZA    FRAG     MASS         X           Y           Z
   0 C     6.0000    0    12.011    6.639692  -31.983816   -5.828208
   1 C     6.0000    0    12.011    4.177969  -32.241094   -4.952722
   2 C     6.0000    0    12.011    8.053763  -29.790966   -6.114341
   3 C     6.0000    0    12.011    7.357269  -27.314434   -5.592099
   4 C     6.0000    0    12.011    5.072224  -26.417985   -4.661531
   5 C     6.0000    0    12.011    2.919085  -27.777271   -4.022915
   6 C     6.0000    0    12.011    2.521692  -30.369158   -4.150811
   7 H     1.0000    0     1.008    8.784770  -25.894505   -5.960670
   8 H     1.0000    0     1.008    4.953423  -24.391377   -4.399698
   9 H     1.0000    0     1.008    1.342810  -26.670159   -3.330331
  10 H     1.0000    0     1.008    0.676569  -31.015592   -3.544306
  11 H     1.0000    0     1.008    3.454378  -34.154795   -4.887794
  12 H     1.0000    0     1.008    7.580211  -33.723414   -6.356708
  13 H     1.0000    0     1.008    9.951963  -30.045771   -6.836772

--------------------------------
INTERNAL COORDINATES (ANGSTROEM)
--------------------------------
 C      0   0   0     0.000000000000     0.00000000     0.00000000
 C      1   0   0     1.389304216493     0.00000000     0.00000000
 C      1   2   0     1.389033452866   128.56089143     0.00000000
 C      3   1   2     1.389133031265   128.57300942     0.11278998
 C      4   3   1     1.389128507533   128.58312674   359.79628712
 C      5   4   3     1.389177905511   128.56230018     0.00000000
 C      2   1   3     1.389073740736   128.58103217     0.10150287
 H      4   3   1     1.083173397785   115.69523885   179.84404264
 H      5   4   3     1.083174275827   115.72014741   180.02808535
 H      6   5   4     1.083200269467   115.71241035   180.06302256
 H      7   2   1     1.083225157667   115.72521321   179.92807461
 H      2   1   3     1.083205348817   115.69939549   180.07019318
 H      1   2   3     1.083210117993   115.69872680   179.97696116
 H      3   1   2     1.083197965989   115.72476183   179.98028802

---------------------------
INTERNAL COORDINATES (A.U.)
---------------------------
 C      0   0   0     0.000000000000     0.00000000     0.00000000
 C      1   0   0     2.625404485873     0.00000000     0.00000000
 C      1   2   0     2.624892816772   128.56089143     0.00000000
 C      3   1   2     2.625080992674   128.57300942     0.11278998
 C      4   3   1     2.625072444061   128.58312674   359.79628712
 C      5   4   3     2.625165792710   128.56230018     0.00000000
 C      2   1   3     2.624968949812   128.58103217     0.10150287
 H      4   3   1     2.046901077363   115.69523885   179.84404264
 H      5   4   3     2.046902736622   115.72014741   180.02808535
 H      6   5   4     2.046951857482   115.71241035   180.06302256
 H      7   2   1     2.046998889364   115.72521321   179.92807461
 H      2   1   3     2.046961456064   115.69939549   180.07019318
 H      1   2   3     2.046970468499   115.69872680   179.97696116
 H      3   1   2     2.046947504539   115.72476183   179.98028802

---------------------
BASIS SET INFORMATION
---------------------
There are 2 groups of distinct atoms

 Group   1 Type C   : 11s7p2d1f contracted to 4s5p2d1f pattern {7211/31111/11/1}
 Group   2 Type H   : 6s3p1d contracted to 3s2p1d pattern {411/21/1}

Atom   0C    basis set group =>   1
Atom   1C    basis set group =>   1
Atom   2C    basis set group =>   1
Atom   3C    basis set group =>   1
Atom   4C    basis set group =>   1
Atom   5C    basis set group =>   1
Atom   6C    basis set group =>   1
Atom   7H    basis set group =>   2
Atom   8H    basis set group =>   2
Atom   9H    basis set group =>   2
Atom  10H    basis set group =>   2
Atom  11H    basis set group =>   2
Atom  12H    basis set group =>   2
Atom  13H    basis set group =>   2
---------------------------------
AUXILIARY/J BASIS SET INFORMATION
---------------------------------
There are 2 groups of distinct atoms

 Group   1 Type C   : 12s5p4d2f1g contracted to 6s4p3d1f1g pattern {711111/2111/211/2/1}
 Group   2 Type H   : 5s2p1d contracted to 3s1p1d pattern {311/2/1}

Atom   0C    basis set group =>   1
Atom   1C    basis set group =>   1
Atom   2C    basis set group =>   1
Atom   3C    basis set group =>   1
Atom   4C    basis set group =>   1
Atom   5C    basis set group =>   1
Atom   6C    basis set group =>   1
Atom   7H    basis set group =>   2
Atom   8H    basis set group =>   2
Atom   9H    basis set group =>   2
Atom  10H    basis set group =>   2
Atom  11H    basis set group =>   2
Atom  12H    basis set group =>   2
Atom  13H    basis set group =>   2
------------------------------------------------------------------------------
                           ORCA GTO INTEGRAL CALCULATION
                           -- RI-GTO INTEGRALS CHOSEN --
------------------------------------------------------------------------------
------------------------------------------------------------------------------
                   ___                                                        
                  /   \      - P O W E R E D   B Y -                         
                 /     \                                                     
                 |  |  |   _    _      __       _____    __    __             
                 |  |  |  | |  | |    /  \     |  _  \  |  |  /  |          
                  \  \/   | |  | |   /    \    | | | |  |  | /  /          
                 / \  \   | |__| |  /  /\  \   | |_| |  |  |/  /          
                |  |  |   |  __  | /  /__\  \  |    /   |      \           
                |  |  |   | |  | | |   __   |  |    \   |  |\   \          
                \     /   | |  | | |  |  |  |  | |\  \  |  | \   \       
                 \___/    |_|  |_| |__|  |__|  |_| \__\ |__|  \__/        
                                                                              
                      - O R C A' S   B I G   F R I E N D -                    
                                      &                                       
                       - I N T E G R A L  F E E D E R -                       
                                                                              
 v1 FN, 2020, v2 2021                                                         
------------------------------------------------------------------------------


Reading SHARK input file Ar-4.SHARKINP.tmp ... ok
----------------------
SHARK INTEGRAL PACKAGE
----------------------

Number of atoms                             ...     14
Number of basis functions                   ...    350
Number of shells                            ...    126
Maximum angular momentum                    ...      3
Integral batch strategy                     ... SHARK/LIBINT Hybrid
RI-J (if used) integral strategy            ... SPLIT-RIJ (Revised 2003 algorithm where possible)
Printlevel                                  ...      1
Contraction scheme used                     ... SEGMENTED contraction
Coulomb Range Separation                    ... NOT USED
Exchange Range Separation                   ... NOT USED
Finite Nucleus Model                        ... NOT USED
Auxiliary Coulomb fitting basis             ... AVAILABLE
   # of basis functions in Aux-J            ...    420
   # of shells in Aux-J                     ...    140
   Maximum angular momentum in Aux-J        ...      4
Auxiliary J/K fitting basis                 ... NOT available
Auxiliary Correlation fitting basis         ... NOT available
Auxiliary 'external' fitting basis          ... NOT available
Integral threshold                          ...     1.000000e-10
Primitive cut-off                           ...     1.000000e-11
Primitive pair pre-selection threshold      ...     1.000000e-11

Calculating pre-screening integrals         ... done (  0.1 sec) Dimension = 126
Organizing shell pair data                  ... done (  0.1 sec)
Shell pair information
Total number of shell pairs                 ...      8001
Shell pairs after pre-screening             ...      7357
Total number of primitive shell pairs       ...     23877
Primitive shell pairs kept                  ...     16282
          la=0 lb=0:   1176 shell pairs
          la=1 lb=0:   2233 shell pairs
          la=1 lb=1:   1078 shell pairs
          la=2 lb=0:    945 shell pairs
          la=2 lb=1:    889 shell pairs
          la=2 lb=2:    203 shell pairs
          la=3 lb=0:    343 shell pairs
          la=3 lb=1:    329 shell pairs
          la=3 lb=2:    133 shell pairs
          la=3 lb=3:     28 shell pairs

Calculating one electron integrals          ... done (  0.0 sec)
Calculating RI/J V-Matrix + Cholesky decomp.... done (  0.0 sec)
Calculating Nuclear repulsion               ... done (  0.0 sec) ENN=    260.489983737761 Eh

SHARK setup successfully completed in   0.3 seconds

Maximum memory used throughout the entire GTOINT-calculation: 110.1 MB
-------------------------------------------------------------------------------
                                 ORCA SCF
-------------------------------------------------------------------------------

------------
SCF SETTINGS
------------
Hamiltonian:
 Density Functional     Method          .... DFT(GTOs)
 Exchange Functional    Exchange        .... PBE
   PBE kappa parameter   XKappa         ....  0.804000
   PBE mue parameter    XMuePBE         ....  0.219520
 Correlation Functional Correlation     .... PBE
   PBE beta parameter  CBetaPBE         ....  0.066725
 LDA part of GGA corr.  LDAOpt          .... PW91-LDA
 Gradients option       PostSCFGGA      .... off
   Density functional embedding theory  .... OFF
   NL short-range parameter             ....  6.400000
 RI-approximation to the Coulomb term is turned on
   Number of AuxJ basis functions       .... 420


General Settings:
 Integral files         IntName         .... Ar-4
 Hartree-Fock type      HFTyp           .... RHF
 Total Charge           Charge          ....    1
 Multiplicity           Mult            ....    1
 Number of Electrons    NEL             ....   48
 Basis Dimension        Dim             ....  350
 Nuclear Repulsion      ENuc            ....    260.4899837378 Eh

Convergence Acceleration:
 DIIS                   CNVDIIS         .... on
   Start iteration      DIISMaxIt       ....    12
   Startup error        DIISStart       ....  0.200000
   # of expansion vecs  DIISMaxEq       ....     5
   Bias factor          DIISBfac        ....   1.050
   Max. coefficient     DIISMaxC        ....  10.000
 Trust-Rad. Augm. Hess. CNVTRAH         .... auto
   Auto Start mean grad. ratio tolernc. ....  1.125000
   Auto Start start iteration           ....    20
   Auto Start num. interpolation iter.  ....    10
   Max. Number of Micro iterations      ....    16
   Max. Number of Macro iterations      .... Maxiter - #DIIS iter
   Number of Davidson start vectors     ....     2
   Converg. threshold I  (grad. norm)   ....   5.000e-05
   Converg. threshold II (energy diff.) ....   1.000e-06
   Grad. Scal. Fac. for Micro threshold ....   0.100
   Minimum threshold for Micro iter.    ....   0.010
   NR start threshold (gradient norm)   ....   0.001
   Initial trust radius                 ....   0.400
   Minimum AH scaling param. (alpha)    ....   1.000
   Maximum AH scaling param. (alpha)    .... 1000.000
   Orbital update algorithm             .... Taylor
   White noise on init. David. guess    .... on
   Maximum white noise                  ....   0.010
   Quad. conv. algorithm                .... NR
 SOSCF                  CNVSOSCF        .... on
   Start iteration      SOSCFMaxIt      ....   150
   Startup grad/error   SOSCFStart      ....  0.003300
 Level Shifting         CNVShift        .... on
   Level shift para.    LevelShift      ....    0.2500
   Turn off err/grad.   ShiftErr        ....    0.0010
 Zerner damping         CNVZerner       .... off
 Static damping         CNVDamp         .... on
   Fraction old density DampFac         ....    0.7000
   Max. Damping (<1)    DampMax         ....    0.9800
   Min. Damping (>=0)   DampMin         ....    0.0000
   Turn off err/grad.   DampErr         ....    0.1000
 Fernandez-Rico         CNVRico         .... off

SCF Procedure:
 Maximum # iterations   MaxIter         ....   125
 SCF integral mode      SCFMode         .... Direct
   Integral package                     .... SHARK and LIBINT hybrid scheme
 Reset frequency        DirectResetFreq ....    20
 Integral Threshold     Thresh          ....  1.000e-10 Eh
 Primitive CutOff       TCut            ....  1.000e-11 Eh

Convergence Tolerance:
 Convergence Check Mode ConvCheckMode   .... Total+1el-Energy
 Convergence forced     ConvForced      .... 0
 Energy Change          TolE            ....  1.000e-06 Eh
 1-El. energy change                    ....  1.000e-03 Eh
 Orbital Gradient       TolG            ....  5.000e-05
 Orbital Rotation angle TolX            ....  5.000e-05
 DIIS Error             TolErr          ....  1.000e-06


Diagonalization of the overlap matrix:
Smallest eigenvalue                        ... 4.407e-05
Time for diagonalization                   ...    0.013 sec
Threshold for overlap eigenvalues          ... 1.000e-08
Number of eigenvalues below threshold      ... 0
Time for construction of square roots      ...    0.005 sec
Total time needed                          ...    0.019 sec

Time for model grid setup =    0.209 sec

------------------------------
INITIAL GUESS: MODEL POTENTIAL
------------------------------
Loading Hartree-Fock densities                     ... done
Calculating cut-offs                               ... done
Initializing the effective Hamiltonian             ... done
Setting up the integral package (SHARK)            ... done
Starting the Coulomb interaction                   ... done (   0.3 sec)
Reading the grid                                   ... done
Mapping shells                                     ... done
Starting the XC term evaluation                    ... done (   0.4 sec)
  promolecular density results
     # of electrons  =     48.996177995
     EX              =    -37.841417531
     EC              =     -1.598826254
     EX+EC           =    -39.440243785
Transforming the Hamiltonian                       ... done (   0.0 sec)
Diagonalizing the Hamiltonian                      ... done (   0.0 sec)
Back transforming the eigenvectors                 ... done (   0.0 sec)
Now organizing SCF variables                       ... done
                      ------------------
                      INITIAL GUESS DONE (   0.9 sec)
                      ------------------
-------------------
DFT GRID GENERATION
-------------------

General Integration Accuracy     IntAcc      ... 4.388
Radial Grid Type                 RadialGrid  ... OptM3 with GC (2021)
Angular Grid (max. ang.)         AngularGrid ... 4 (Lebedev-302)
Angular grid pruning method      GridPruning ... 4 (adaptive)
Weight generation scheme         WeightScheme... Becke
Basis function cutoff            BFCut       ... 1.0000e-10
Integration weight cutoff        WCut        ... 1.0000e-14
Angular grids for H and He will be reduced by one unit
Partially contracted basis set               ... off
Rotationally invariant grid construction     ... off

Total number of grid points                  ...    64761
Total number of batches                      ...     1019
Average number of points per batch           ...       63
Average number of grid points per atom       ...     4626
Time for grid setup =    0.755 sec

--------------
SCF ITERATIONS
--------------
ITER       Energy         Delta-E        Max-DP      RMS-DP      [F,P]     Damp
               ***  Starting incremental Fock matrix formation  ***
  0   -270.3462383815   0.000000000000 0.02101087  0.00059179  0.0754801 0.7000
  1   -270.3730545012  -0.026816119731 0.01441819  0.00043692  0.0401483 0.7000
                               ***Turning on DIIS***
  2   -270.3848579188  -0.011803417644 0.02751237  0.00078946  0.0164652 0.0000
  3   -270.4020698054  -0.017211886535 0.01039058  0.00027048  0.0218623 0.0000
  4   -270.4063666023  -0.004296796935 0.00152323  0.00004821  0.0035988 0.0000
                      *** Initiating the SOSCF procedure ***
                           *** Shutting down DIIS ***
                      *** Re-Reading the Fockian *** 
                      *** Removing any level shift *** 
ITER      Energy       Delta-E        Grad      Rot      Max-DP    RMS-DP
  5   -270.40651874  -0.0001521417  0.000372  0.000372  0.000562  0.000017
               *** Restarting incremental Fock matrix formation ***
  6   -270.40652349  -0.0000047483  0.000074  0.000153  0.000138  0.000004
  7   -270.40652342   0.0000000771  0.000085  0.000071  0.000078  0.000002
                 **** Energy Check signals convergence ****
              ***Rediagonalizing the Fockian in SOSCF/NRSCF***

               *****************************************************
               *                     SUCCESS                       *
               *           SCF CONVERGED AFTER   8 CYCLES          *
               *****************************************************


----------------
TOTAL SCF ENERGY
----------------

Total Energy       :         -270.40652368 Eh           -7358.13559 eV

Components:
Nuclear Repulsion  :          260.48998374 Eh            7088.29282 eV
Electronic Energy  :         -530.89650742 Eh          -14446.42841 eV
One Electron Energy:         -869.03471069 Eh          -23647.63670 eV
Two Electron Energy:          338.13820327 Eh            9201.20829 eV

Virial components:
Potential Energy   :         -540.05979364 Eh          -14695.77410 eV
Kinetic Energy     :          269.65326996 Eh            7337.63851 eV
Virial Ratio       :            2.00279342


DFT components:
N(Alpha)           :       23.999979339492 electrons
N(Beta)            :       23.999979339492 electrons
N(Total)           :       47.999958678983 electrons
E(X)               :      -38.407338299650 Eh       
E(C)               :       -1.562669060815 Eh       
E(XC)              :      -39.970007360465 Eh       
DFET-embed. en.    :        0.000000000000 Eh       

---------------
SCF CONVERGENCE
---------------

  Last Energy change         ...   -2.6772e-07  Tolerance :   1.0000e-06
  Last MAX-Density change    ...    2.5858e-05  Tolerance :   1.0000e-05
  Last RMS-Density change    ...    7.2540e-07  Tolerance :   1.0000e-06
  Last Orbital Gradient      ...    1.6724e-05  Tolerance :   5.0000e-05
  Last Orbital Rotation      ...    9.6504e-05  Tolerance :   5.0000e-05

             **** THE GBW FILE WAS UPDATED (Ar-4.gbw) ****
             **** DENSITY Ar-4.scfp WAS UPDATED ****
             **** ENERGY FILE WAS UPDATED (Ar-4.en.tmp) ****
             **** THE GBW FILE WAS UPDATED (Ar-4.gbw) ****
             **** DENSITY Ar-4.scfp WAS UPDATED ****
----------------
ORBITAL ENERGIES
----------------

  NO   OCC          E(Eh)            E(eV) 
   0   2.0000     -10.112078      -275.1636 
   1   2.0000     -10.111921      -275.1594 
   2   2.0000     -10.111902      -275.1588 
   3   2.0000     -10.111561      -275.1496 
   4   2.0000     -10.111548      -275.1492 
   5   2.0000     -10.111290      -275.1422 
   6   2.0000     -10.111235      -275.1407 
   7   2.0000      -0.986857       -26.8537 
   8   2.0000      -0.919161       -25.0117 
   9   2.0000      -0.919152       -25.0114 
  10   2.0000      -0.806236       -21.9388 
  11   2.0000      -0.806218       -21.9383 
  12   2.0000      -0.681538       -18.5456 
  13   2.0000      -0.681534       -18.5455 
  14   2.0000      -0.678287       -18.4571 
  15   2.0000      -0.605099       -16.4656 
  16   2.0000      -0.605086       -16.4652 
  17   2.0000      -0.549385       -14.9495 
  18   2.0000      -0.549367       -14.9490 
  19   2.0000      -0.545989       -14.8571 
  20   2.0000      -0.507108       -13.7991 
  21   2.0000      -0.507080       -13.7983 
  22   2.0000      -0.473620       -12.8879 
  23   2.0000      -0.473610       -12.8876 
  24   0.0000      -0.315675        -8.5900 
  25   0.0000      -0.315641        -8.5890 
  26   0.0000      -0.161556        -4.3962 
  27   0.0000      -0.135784        -3.6949 
  28   0.0000      -0.135742        -3.6937 
  29   0.0000      -0.127516        -3.4699 
  30   0.0000      -0.127509        -3.4697 
  31   0.0000      -0.085655        -2.3308 
  32   0.0000      -0.085650        -2.3307 
  33   0.0000      -0.054884        -1.4935 
  34   0.0000      -0.054875        -1.4932 
  35   0.0000      -0.048114        -1.3092 
  36   0.0000      -0.031631        -0.8607 
  37   0.0000       0.003928         0.1069 
  38   0.0000       0.004024         0.1095 
  39   0.0000       0.009113         0.2480 
  40   0.0000       0.009123         0.2483 
  41   0.0000       0.011760         0.3200 
  42   0.0000       0.011770         0.3203 
  43   0.0000       0.021597         0.5877 
  44   0.0000       0.021615         0.5882 
  45   0.0000       0.033696         0.9169 
  46   0.0000       0.071988         1.9589 
  47   0.0000       0.072002         1.9593 
  48   0.0000       0.090751         2.4695 
  49   0.0000       0.090781         2.4703 
  50   0.0000       0.122298         3.3279 
  51   0.0000       0.122313         3.3283 
  52   0.0000       0.133222         3.6251 
  53   0.0000       0.133265         3.6263 
  54   0.0000       0.151671         4.1272 
  55   0.0000       0.151706         4.1281 
  56   0.0000       0.154896         4.2149 
  57   0.0000       0.154900         4.2150 
  58   0.0000       0.156249         4.2518 
  59   0.0000       0.156274         4.2524 
  60   0.0000       0.187724         5.1082 
  61   0.0000       0.228548         6.2191 
  62   0.0000       0.228580         6.2200 
  63   0.0000       0.243508         6.6262 
  64   0.0000       0.243557         6.6275 
  65   0.0000       0.322554         8.7771 
  66   0.0000       0.322582         8.7779 
  67   0.0000       0.326240         8.8774 
  68   0.0000       0.345779         9.4091 
  69   0.0000       0.348552         9.4846 
  70   0.0000       0.348595         9.4857 
  71   0.0000       0.387455        10.5432 
  72   0.0000       0.387491        10.5442 
  73   0.0000       0.456965        12.4347 
  74   0.0000       0.472533        12.8583 
  75   0.0000       0.472555        12.8589 
  76   0.0000       0.473564        12.8863 
  77   0.0000       0.473779        12.8922 
  78   0.0000       0.476858        12.9760 
  79   0.0000       0.477116        12.9830 
  80   0.0000       0.568011        15.4564 
  81   0.0000       0.568038        15.4571 
  82   0.0000       0.593083        16.1386 
  83   0.0000       0.613158        16.6849 
  84   0.0000       0.613168        16.6851 
  85   0.0000       0.632463        17.2102 
  86   0.0000       0.632480        17.2107 
  87   0.0000       0.705060        19.1857 
  88   0.0000       0.705121        19.1873 
  89   0.0000       0.712032        19.3754 
  90   0.0000       0.759412        20.6646 
  91   0.0000       0.759469        20.6662 
  92   0.0000       0.770774        20.9738 
  93   0.0000       0.793240        21.5852 
  94   0.0000       0.793251        21.5855 
  95   0.0000       0.826248        22.4833 
  96   0.0000       0.834564        22.7096 
  97   0.0000       0.834565        22.7097 
  98   0.0000       0.874716        23.8022 
  99   0.0000       0.874729        23.8026 
 100   0.0000       0.897369        24.4187 
 101   0.0000       0.897372        24.4187 
 102   0.0000       0.919092        25.0098 
 103   0.0000       0.919638        25.0246 
 104   0.0000       0.919712        25.0266 
 105   0.0000       0.958460        26.0810 
 106   0.0000       0.958477        26.0815 
 107   0.0000       0.976089        26.5607 
 108   0.0000       0.985538        26.8178 
 109   0.0000       0.985601        26.8196 
 110   0.0000       0.989295        26.9201 
 111   0.0000       0.989311        26.9205 
 112   0.0000       1.026821        27.9412 
 113   0.0000       1.026833        27.9416 
 114   0.0000       1.114586        30.3294 
 115   0.0000       1.114605        30.3300 
 116   0.0000       1.168058        31.7845 
 117   0.0000       1.168095        31.7855 
 118   0.0000       1.185663        32.2635 
 119   0.0000       1.185743        32.2657 
 120   0.0000       1.203462        32.7479 
 121   0.0000       1.203475        32.7482 
 122   0.0000       1.215326        33.0707 
 123   0.0000       1.215451        33.0741 
 124   0.0000       1.264650        34.4129 
 125   0.0000       1.289440        35.0875 
 126   0.0000       1.289479        35.0885 
 127   0.0000       1.346607        36.6431 
 128   0.0000       1.346640        36.6439 
 129   0.0000       1.396104        37.9899 
 130   0.0000       1.396118        37.9903 
 131   0.0000       1.435501        39.0620 
 132   0.0000       1.435562        39.0636 
 133   0.0000       1.451121        39.4870 
 134   0.0000       1.451250        39.4905 
 135   0.0000       1.494880        40.6778 
 136   0.0000       1.494937        40.6793 
 137   0.0000       1.511885        41.1405 
 138   0.0000       1.511900        41.1409 
 139   0.0000       1.518143        41.3108 
 140   0.0000       1.518246        41.3136 
 141   0.0000       1.559581        42.4383 
 142   0.0000       1.559654        42.4403 
 143   0.0000       1.592017        43.3210 
 144   0.0000       1.592063        43.3222 
 145   0.0000       1.682907        45.7942 
 146   0.0000       1.780863        48.4598 
 147   0.0000       1.804395        49.1001 
 148   0.0000       1.833979        49.9051 
 149   0.0000       1.834001        49.9057 
 150   0.0000       1.916506        52.1508 
 151   0.0000       1.935636        52.6713 
 152   0.0000       1.935660        52.6720 
 153   0.0000       2.043553        55.6079 
 154   0.0000       2.043617        55.6096 
 155   0.0000       2.101893        57.1954 
 156   0.0000       2.101962        57.1973 
 157   0.0000       2.180070        59.3227 
 158   0.0000       2.180214        59.3266 
 159   0.0000       2.221785        60.4578 
 160   0.0000       2.363338        64.3097 
 161   0.0000       2.363382        64.3109 
 162   0.0000       2.604640        70.8758 
 163   0.0000       2.604656        70.8763 
 164   0.0000       2.646667        72.0195 
 165   0.0000       2.681022        72.9543 
 166   0.0000       2.681052        72.9551 
 167   0.0000       2.894748        78.7701 
 168   0.0000       2.894764        78.7705 
 169   0.0000       2.921930        79.5098 
 170   0.0000       2.922019        79.5122 
 171   0.0000       2.954134        80.3861 
 172   0.0000       2.954204        80.3880 
 173   0.0000       2.966960        80.7351 
 174   0.0000       2.968972        80.7898 
 175   0.0000       3.031860        82.5011 
 176   0.0000       3.031879        82.5016 
 177   0.0000       3.074699        83.6668 
 178   0.0000       3.074704        83.6669 
 179   0.0000       3.183802        86.6357 
 180   0.0000       3.183976        86.6404 
 181   0.0000       3.216800        87.5336 
 182   0.0000       3.216827        87.5343 
 183   0.0000       3.302481        89.8651 
 184   0.0000       3.302545        89.8668 
 185   0.0000       3.320136        90.3455 
 186   0.0000       3.390057        92.2481 
 187   0.0000       3.390223        92.2527 
 188   0.0000       3.396704        92.4290 
 189   0.0000       3.396777        92.4310 
 190   0.0000       3.495035        95.1047 
 191   0.0000       3.495107        95.1067 
 192   0.0000       3.512348        95.5759 
 193   0.0000       3.512446        95.5785 
 194   0.0000       3.532994        96.1377 
 195   0.0000       3.533006        96.1380 
 196   0.0000       3.617158        98.4279 
 197   0.0000       3.617186        98.4286 
 198   0.0000       3.667878        99.8080 
 199   0.0000       3.673347        99.9569 
 200   0.0000       3.673369        99.9574 
 201   0.0000       3.674617        99.9914 
 202   0.0000       3.719146       101.2031 
 203   0.0000       3.719179       101.2040 
 204   0.0000       3.721898       101.2780 
 205   0.0000       3.743903       101.8768 
 206   0.0000       3.743982       101.8789 
 207   0.0000       3.777030       102.7782 
 208   0.0000       3.777090       102.7798 
 209   0.0000       3.784341       102.9772 
 210   0.0000       3.784370       102.9779 
 211   0.0000       3.873738       105.4098 
 212   0.0000       3.873828       105.4122 
 213   0.0000       3.882111       105.6376 
 214   0.0000       3.882132       105.6382 
 215   0.0000       3.894531       105.9756 
 216   0.0000       3.894567       105.9766 
 217   0.0000       3.912137       106.4547 
 218   0.0000       3.912229       106.4572 
 219   0.0000       3.938010       107.1587 
 220   0.0000       3.938132       107.1620 
 221   0.0000       3.959167       107.7344 
 222   0.0000       3.959190       107.7350 
 223   0.0000       3.972431       108.0953 
 224   0.0000       3.985122       108.4407 
 225   0.0000       3.986733       108.4845 
 226   0.0000       3.986754       108.4851 
 227   0.0000       3.990003       108.5735 
 228   0.0000       3.990025       108.5741 
 229   0.0000       3.993792       108.6766 
 230   0.0000       3.993902       108.6796 
 231   0.0000       4.031494       109.7025 
 232   0.0000       4.031587       109.7051 
 233   0.0000       4.071133       110.7812 
 234   0.0000       4.071152       110.7817 
 235   0.0000       4.093140       111.3800 
 236   0.0000       4.096040       111.4589 
 237   0.0000       4.174706       113.5995 
 238   0.0000       4.181818       113.7930 
 239   0.0000       4.181828       113.7933 
 240   0.0000       4.193566       114.1127 
 241   0.0000       4.193645       114.1149 
 242   0.0000       4.210136       114.5636 
 243   0.0000       4.210307       114.5683 
 244   0.0000       4.256228       115.8179 
 245   0.0000       4.256355       115.8213 
 246   0.0000       4.269664       116.1835 
 247   0.0000       4.269729       116.1852 
 248   0.0000       4.282225       116.5253 
 249   0.0000       4.282251       116.5260 
 250   0.0000       4.314210       117.3956 
 251   0.0000       4.314263       117.3971 
 252   0.0000       4.340659       118.1153 
 253   0.0000       4.340740       118.1175 
 254   0.0000       4.372175       118.9729 
 255   0.0000       4.391826       119.5077 
 256   0.0000       4.391871       119.5089 
 257   0.0000       4.407140       119.9244 
 258   0.0000       4.407185       119.9256 
 259   0.0000       4.474404       121.7547 
 260   0.0000       4.474468       121.7565 
 261   0.0000       4.486120       122.0735 
 262   0.0000       4.486135       122.0739 
 263   0.0000       4.493986       122.2876 
 264   0.0000       4.617552       125.6500 
 265   0.0000       4.617822       125.6573 
 266   0.0000       4.636875       126.1758 
 267   0.0000       4.637113       126.1823 
 268   0.0000       4.666697       126.9873 
 269   0.0000       4.666845       126.9913 
 270   0.0000       4.667924       127.0207 
 271   0.0000       4.668056       127.0243 
 272   0.0000       4.691961       127.6748 
 273   0.0000       4.691972       127.6751 
 274   0.0000       4.784725       130.1990 
 275   0.0000       4.784793       130.2008 
 276   0.0000       4.911439       133.6470 
 277   0.0000       4.962523       135.0371 
 278   0.0000       4.962765       135.0437 
 279   0.0000       4.995377       135.9311 
 280   0.0000       5.053297       137.5072 
 281   0.0000       5.067316       137.8887 
 282   0.0000       5.067387       137.8906 
 283   0.0000       5.072616       138.0329 
 284   0.0000       5.072708       138.0354 
 285   0.0000       5.134846       139.7263 
 286   0.0000       5.141849       139.9168 
 287   0.0000       5.141941       139.9193 
 288   0.0000       5.172626       140.7543 
 289   0.0000       5.172662       140.7553 
 290   0.0000       5.179175       140.9325 
 291   0.0000       5.179222       140.9338 
 292   0.0000       5.195475       141.3761 
 293   0.0000       5.195719       141.3827 
 294   0.0000       5.239270       142.5678 
 295   0.0000       5.287253       143.8735 
 296   0.0000       5.287313       143.8751 
 297   0.0000       5.296850       144.1346 
 298   0.0000       5.297033       144.1396 
 299   0.0000       5.462523       148.6428 
 300   0.0000       5.462703       148.6477 
 301   0.0000       5.492026       149.4456 
 302   0.0000       5.492113       149.4480 
 303   0.0000       5.496186       149.5588 
 304   0.0000       5.496256       149.5607 
 305   0.0000       5.511184       149.9669 
 306   0.0000       5.513953       150.0423 
 307   0.0000       5.514094       150.0461 
 308   0.0000       5.827691       158.5795 
 309   0.0000       5.827747       158.5811 
 310   0.0000       6.104345       166.1077 
 311   0.0000       6.134907       166.9393 
 312   0.0000       6.135006       166.9420 
 313   0.0000       6.182621       168.2377 
 314   0.0000       6.182751       168.2412 
 315   0.0000       6.355278       172.9359 
 316   0.0000       6.355444       172.9404 
 317   0.0000       6.381203       173.6413 
 318   0.0000       6.381304       173.6441 
 319   0.0000       6.451029       175.5414 
 320   0.0000       6.451170       175.5452 
 321   0.0000       6.555318       178.3793 
 322   0.0000       6.733447       183.2264 
 323   0.0000       6.733722       183.2339 
 324   0.0000       7.027091       191.2169 
 325   0.0000       7.027757       191.2350 
 326   0.0000       7.335172       199.6002 
 327   0.0000       8.496272       231.1953 
 328   0.0000       8.496594       231.2041 
 329   0.0000      18.048506       491.1248 
 330   0.0000      18.135212       493.4842 
 331   0.0000      18.135239       493.4849 
 332   0.0000      18.236821       496.2491 
 333   0.0000      18.236869       496.2504 
 334   0.0000      18.320834       498.5352 
 335   0.0000      18.371497       499.9139 
 336   0.0000      18.371578       499.9161 
 337   0.0000      18.568158       505.2653 
 338   0.0000      18.568283       505.2687 
 339   0.0000      18.671105       508.0666 
 340   0.0000      18.671142       508.0676 
 341   0.0000      18.702377       508.9175 
 342   0.0000      18.702602       508.9237 
 343   0.0000      19.022127       517.6184 
 344   0.0000      19.022145       517.6189 
 345   0.0000      19.124551       520.4055 
 346   0.0000      19.124600       520.4068 
 347   0.0000      19.577073       532.7192 
 348   0.0000      19.577169       532.7219 
 349   0.0000      20.263121       551.3875 

                    ********************************
                    * MULLIKEN POPULATION ANALYSIS *
                    ********************************

-----------------------
MULLIKEN ATOMIC CHARGES
-----------------------
   0 C :    0.040256
   1 C :    0.040395
   2 C :    0.040136
   3 C :    0.040179
   4 C :    0.040132
   5 C :    0.040312
   6 C :    0.040088
   7 H :    0.102620
   8 H :    0.102654
   9 H :    0.102695
  10 H :    0.102655
  11 H :    0.102587
  12 H :    0.102634
  13 H :    0.102659
Sum of atomic charges:    1.0000000

--------------------------------
MULLIKEN REDUCED ORBITAL CHARGES
--------------------------------
  0 C s       :     3.104196  s :     3.104196
      pz      :     0.851264  p :     2.784554
      px      :     0.939531
      py      :     0.993759
      dz2     :     0.004679  d :     0.066781
      dxz     :     0.009362
      dyz     :     0.008060
      dx2y2   :     0.021803
      dxy     :     0.022877
      f0      :     0.000626  f :     0.004215
      f+1     :     0.000780
      f-1     :     0.000318
      f+2     :     0.000388
      f-2     :     0.000583
      f+3     :     0.000464
      f-3     :     0.001055
  1 C s       :     3.104079  s :     3.104079
      pz      :     0.845432  p :     2.784535
      px      :     0.932522
      py      :     1.006581
      dz2     :     0.005002  d :     0.066776
      dxz     :     0.010646
      dyz     :     0.007396
      dx2y2   :     0.021952
      dxy     :     0.021780
      f0      :     0.000527  f :     0.004215
      f+1     :     0.000936
      f-1     :     0.000362
      f+2     :     0.000494
      f-2     :     0.000535
      f+3     :     0.000510
      f-3     :     0.000851
  2 C s       :     3.104078  s :     3.104078
      pz      :     0.855323  p :     2.784773
      px      :     0.995202
      py      :     0.934248
      dz2     :     0.004446  d :     0.066796
      dxz     :     0.004815
      dyz     :     0.012001
      dx2y2   :     0.023598
      dxy     :     0.021936
      f0      :     0.000709  f :     0.004216
      f+1     :     0.000281
      f-1     :     0.000646
      f+2     :     0.000443
      f-2     :     0.000479
      f+3     :     0.000639
      f-3     :     0.001021
  3 C s       :     3.104075  s :     3.104075
      pz      :     0.848328  p :     2.784740
      px      :     0.962846
      py      :     0.973565
      dz2     :     0.004839  d :     0.066790
      dxz     :     0.007829
      dyz     :     0.009925
      dx2y2   :     0.021210
      dxy     :     0.022988
      f0      :     0.000575  f :     0.004216
      f+1     :     0.000664
      f-1     :     0.000538
      f+2     :     0.000532
      f-2     :     0.000469
      f+3     :     0.000779
      f-3     :     0.000658
  4 C s       :     3.104180  s :     3.104180
      pz      :     0.846544  p :     2.784697
      px      :     0.922580
      py      :     1.015573
      dz2     :     0.004914  d :     0.066776
      dxz     :     0.011342
      dyz     :     0.006548
      dx2y2   :     0.022826
      dxy     :     0.021147
      f0      :     0.000551  f :     0.004215
      f+1     :     0.000982
      f-1     :     0.000269
      f+2     :     0.000469
      f-2     :     0.000546
      f+3     :     0.000953
      f-3     :     0.000445
  5 C s       :     3.104061  s :     3.104061
      pz      :     0.855312  p :     2.784636
      px      :     0.971865
      py      :     0.957459
      dz2     :     0.004449  d :     0.066776
      dxz     :     0.006511
      dyz     :     0.010372
      dx2y2   :     0.022041
      dxy     :     0.023403
      f0      :     0.000699  f :     0.004215
      f+1     :     0.000472
      f-1     :     0.000481
      f+2     :     0.000521
      f-2     :     0.000404
      f+3     :     0.001088
      f-3     :     0.000550
  6 C s       :     3.104169  s :     3.104169
      pz      :     0.852557  p :     2.784740
      px      :     0.990804
      py      :     0.941380
      dz2     :     0.004574  d :     0.066787
      dxz     :     0.005288
      dyz     :     0.011892
      dx2y2   :     0.022906
      dxy     :     0.022127
      f0      :     0.000659  f :     0.004216
      f+1     :     0.000382
      f-1     :     0.000651
      f+2     :     0.000586
      f-2     :     0.000366
      f+3     :     0.000862
      f-3     :     0.000710
  7 H s       :     0.854153  s :     0.854153
      pz      :     0.008187  p :     0.041015
      px      :     0.016517
      py      :     0.016310
      dz2     :     0.000256  d :     0.002212
      dxz     :     0.000297
      dyz     :     0.000291
      dx2y2   :     0.000595
      dxy     :     0.000774
  8 H s       :     0.854125  s :     0.854125
      pz      :     0.007862  p :     0.041009
      px      :     0.006832
      py      :     0.026315
      dz2     :     0.000254  d :     0.002212
      dxz     :     0.000019
      dyz     :     0.000546
      dx2y2   :     0.000787
      dxy     :     0.000605
  9 H s       :     0.854084  s :     0.854084
      pz      :     0.009839  p :     0.041009
      px      :     0.018648
      py      :     0.012522
      dz2     :     0.000267  d :     0.002212
      dxz     :     0.000443
      dyz     :     0.000255
      dx2y2   :     0.000568
      dxy     :     0.000679
 10 H s       :     0.854128  s :     0.854128
      pz      :     0.009295  p :     0.041006
      px      :     0.023055
      py      :     0.008657
      dz2     :     0.000262  d :     0.002212
      dxz     :     0.000545
      dyz     :     0.000118
      dx2y2   :     0.000657
      dxy     :     0.000629
 11 H s       :     0.854188  s :     0.854188
      pz      :     0.007553  p :     0.041013
      px      :     0.009276
      py      :     0.024183
      dz2     :     0.000253  d :     0.002212
      dxz     :     0.000074
      dyz     :     0.000468
      dx2y2   :     0.000721
      dxy     :     0.000696
 12 H s       :     0.854141  s :     0.854141
      pz      :     0.008869  p :     0.041013
      px      :     0.011002
      py      :     0.021142
      dz2     :     0.000260  d :     0.002212
      dxz     :     0.000170
      dyz     :     0.000464
      dx2y2   :     0.000629
      dxy     :     0.000689
 13 H s       :     0.854123  s :     0.854123
      pz      :     0.010022  p :     0.041006
      px      :     0.024016
      py      :     0.006969
      dz2     :     0.000269  d :     0.002212
      dxz     :     0.000619
      dyz     :     0.000091
      dx2y2   :     0.000676
      dxy     :     0.000557


                     *******************************
                     * LOEWDIN POPULATION ANALYSIS *
                     *******************************

----------------------
LOEWDIN ATOMIC CHARGES
----------------------
   0 C :    0.073249
   1 C :    0.073263
   2 C :    0.073129
   3 C :    0.073206
   4 C :    0.073210
   5 C :    0.073316
   6 C :    0.073207
   7 H :    0.069624
   8 H :    0.069625
   9 H :    0.069624
  10 H :    0.069647
  11 H :    0.069623
  12 H :    0.069636
  13 H :    0.069640

-------------------------------
LOEWDIN REDUCED ORBITAL CHARGES
-------------------------------
  0 C s       :     2.785666  s :     2.785666
      pz      :     0.816829  p :     2.885453
      px      :     1.017900
      py      :     1.050724
      dz2     :     0.017429  d :     0.234900
      dxz     :     0.029266
      dyz     :     0.025794
      dx2y2   :     0.073834
      dxy     :     0.088576
      f0      :     0.001749  f :     0.020732
      f+1     :     0.002026
      f-1     :     0.001505
      f+2     :     0.002142
      f-2     :     0.002908
      f+3     :     0.003991
      f-3     :     0.006412
  1 C s       :     2.785665  s :     2.785665
      pz      :     0.816171  p :     2.885452
      px      :     1.017258
      py      :     1.052023
      dz2     :     0.019541  d :     0.234889
      dxz     :     0.034742
      dyz     :     0.020386
      dx2y2   :     0.081710
      dxy     :     0.078509
      f0      :     0.001375  f :     0.020731
      f+1     :     0.002246
      f-1     :     0.001856
      f+2     :     0.002577
      f-2     :     0.002739
      f+3     :     0.004323
      f-3     :     0.005616
  2 C s       :     2.785611  s :     2.785611
      pz      :     0.817451  p :     2.885573
      px      :     1.023343
      py      :     1.044779
      dz2     :     0.016285  d :     0.234947
      dxz     :     0.018749
      dyz     :     0.035284
      dx2y2   :     0.094509
      dxy     :     0.070120
      f0      :     0.001941  f :     0.020740
      f+1     :     0.000685
      f-1     :     0.002564
      f+2     :     0.002246
      f-2     :     0.002468
      f+3     :     0.004577
      f-3     :     0.006259
  3 C s       :     2.785625  s :     2.785625
      pz      :     0.816464  p :     2.885501
      px      :     1.020471
      py      :     1.048567
      dz2     :     0.018424  d :     0.234931
      dxz     :     0.024152
      dyz     :     0.031085
      dx2y2   :     0.066078
      dxy     :     0.095192
      f0      :     0.001572  f :     0.020737
      f+1     :     0.001773
      f-1     :     0.002027
      f+2     :     0.002603
      f-2     :     0.002600
      f+3     :     0.005424
      f-3     :     0.004739
  4 C s       :     2.785644  s :     2.785644
      pz      :     0.816231  p :     2.885511
      px      :     1.016570
      py      :     1.052710
      dz2     :     0.018946  d :     0.234901
      dxz     :     0.037101
      dyz     :     0.018049
      dx2y2   :     0.094491
      dxy     :     0.066315
      f0      :     0.001475  f :     0.020734
      f+1     :     0.002330
      f-1     :     0.001619
      f+2     :     0.002576
      f-2     :     0.002683
      f+3     :     0.005948
      f-3     :     0.004104
  5 C s       :     2.785680  s :     2.785680
      pz      :     0.816820  p :     2.885396
      px      :     1.021503
      py      :     1.047073
      dz2     :     0.016386  d :     0.234878
      dxz     :     0.021896
      dyz     :     0.032189
      dx2y2   :     0.071815
      dxy     :     0.092592
      f0      :     0.001916  f :     0.020729
      f+1     :     0.001288
      f-1     :     0.001991
      f+2     :     0.002572
      f-2     :     0.002189
      f+3     :     0.006625
      f-3     :     0.004149
  6 C s       :     2.785656  s :     2.785656
      pz      :     0.816820  p :     2.885508
      px      :     1.023155
      py      :     1.045533
      dz2     :     0.016904  d :     0.234896
      dxz     :     0.018037
      dyz     :     0.036621
      dx2y2   :     0.086524
      dxy     :     0.076810
      f0      :     0.001835  f :     0.020733
      f+1     :     0.001048
      f-1     :     0.002353
      f+2     :     0.002824
      f-2     :     0.002106
      f+3     :     0.005491
      f-3     :     0.005077
  7 H s       :     0.789440  s :     0.789440
      pz      :     0.026979  p :     0.122279
      px      :     0.047714
      py      :     0.047585
      dz2     :     0.002010  d :     0.018657
      dxz     :     0.002643
      dyz     :     0.002514
      dx2y2   :     0.005733
      dxy     :     0.005757
  8 H s       :     0.789443  s :     0.789443
      pz      :     0.026271  p :     0.122276
      px      :     0.026346
      py      :     0.069659
      dz2     :     0.001963  d :     0.018656
      dxz     :     0.000140
      dyz     :     0.004880
      dx2y2   :     0.005875
      dxy     :     0.005798
  9 H s       :     0.789453  s :     0.789453
      pz      :     0.030611  p :     0.122269
      px      :     0.052427
      py      :     0.039232
      dz2     :     0.002246  d :     0.018654
      dxz     :     0.003710
      dyz     :     0.002143
      dx2y2   :     0.005308
      dxy     :     0.005246
 10 H s       :     0.789441  s :     0.789441
      pz      :     0.029424  p :     0.122260
      px      :     0.062136
      py      :     0.030699
      dz2     :     0.002170  d :     0.018652
      dxz     :     0.004620
      dyz     :     0.001006
      dx2y2   :     0.005357
      dxy     :     0.005499
 11 H s       :     0.789454  s :     0.789454
      pz      :     0.025586  p :     0.122270
      px      :     0.031730
      py      :     0.064954
      dz2     :     0.001918  d :     0.018654
      dxz     :     0.000641
      dyz     :     0.004248
      dx2y2   :     0.005941
      dxy     :     0.005906
 12 H s       :     0.789446  s :     0.789446
      pz      :     0.028488  p :     0.122265
      px      :     0.035541
      py      :     0.058236
      dz2     :     0.002109  d :     0.018653
      dxz     :     0.001506
      dyz     :     0.003940
      dx2y2   :     0.005620
      dxy     :     0.005477
 13 H s       :     0.789436  s :     0.789436
      pz      :     0.031047  p :     0.122269
      px      :     0.064245
      py      :     0.026977
      dz2     :     0.002278  d :     0.018655
      dxz     :     0.005094
      dyz     :     0.000845
      dx2y2   :     0.005158
      dxy     :     0.005280


                      *****************************
                      * MAYER POPULATION ANALYSIS *
                      *****************************

  NA   - Mulliken gross atomic population
  ZA   - Total nuclear charge
  QA   - Mulliken gross atomic charge
  VA   - Mayer's total valence
  BVA  - Mayer's bonded valence
  FA   - Mayer's free valence

  ATOM       NA         ZA         QA         VA         BVA        FA
  0 C      5.9597     6.0000     0.0403     3.9328     3.9328     0.0000
  1 C      5.9596     6.0000     0.0404     3.9327     3.9327     0.0000
  2 C      5.9599     6.0000     0.0401     3.9329     3.9329     0.0000
  3 C      5.9598     6.0000     0.0402     3.9329     3.9329     0.0000
  4 C      5.9599     6.0000     0.0401     3.9330     3.9330     0.0000
  5 C      5.9597     6.0000     0.0403     3.9327     3.9327    -0.0000
  6 C      5.9599     6.0000     0.0401     3.9331     3.9331     0.0000
  7 H      0.8974     1.0000     0.1026     1.0111     1.0111     0.0000
  8 H      0.8973     1.0000     0.1027     1.0111     1.0111     0.0000
  9 H      0.8973     1.0000     0.1027     1.0111     1.0111    -0.0000
 10 H      0.8973     1.0000     0.1027     1.0111     1.0111     0.0000
 11 H      0.8974     1.0000     0.1026     1.0111     1.0111     0.0000
 12 H      0.8974     1.0000     0.1026     1.0111     1.0111     0.0000
 13 H      0.8973     1.0000     0.1027     1.0111     1.0111    -0.0000

  Mayer bond orders larger than 0.100000
B(  0-C ,  1-C ) :   1.4152 B(  0-C ,  2-C ) :   1.4157 B(  0-C , 12-H ) :   0.9691 
B(  1-C ,  6-C ) :   1.4158 B(  1-C , 11-H ) :   0.9691 B(  2-C ,  3-C ) :   1.4155 
B(  2-C , 13-H ) :   0.9691 B(  3-C ,  4-C ) :   1.4157 B(  3-C ,  7-H ) :   0.9691 
B(  4-C ,  5-C ) :   1.4155 B(  4-C ,  8-H ) :   0.9691 B(  5-C ,  6-C ) :   1.4155 
B(  5-C ,  9-H ) :   0.9691 B(  6-C , 10-H ) :   0.9691 

-------
TIMINGS
-------

Total SCF time: 0 days 0 hours 0 min 17 sec 

Total time                  ....      17.605 sec
Sum of individual times     ....      17.374 sec  ( 98.7%)

Fock matrix formation       ....      15.526 sec  ( 88.2%)
  Split-RI-J                ....       4.710 sec  ( 30.3% of F)
  XC integration            ....      10.782 sec  ( 69.4% of F)
    Basis function eval.    ....       3.117 sec  ( 28.9% of XC)
    Density eval.           ....       2.662 sec  ( 24.7% of XC)
    XC-Functional eval.     ....       0.600 sec  (  5.6% of XC)
    XC-Potential eval.      ....       4.174 sec  ( 38.7% of XC)
Diagonalization             ....       0.109 sec  (  0.6%)
Density matrix formation    ....       0.008 sec  (  0.0%)
Population analysis         ....       0.015 sec  (  0.1%)
Initial guess               ....       0.666 sec  (  3.8%)
Orbital Transformation      ....       0.000 sec  (  0.0%)
Orbital Orthonormalization  ....       0.000 sec  (  0.0%)
DIIS solution               ....       0.044 sec  (  0.2%)
SOSCF solution              ....       0.042 sec  (  0.2%)
Grid generation             ....       0.963 sec  (  5.5%)

Maximum memory used throughout the entire SCF-calculation: 132.0 MB

-------------------------   --------------------
FINAL SINGLE POINT ENERGY      -270.406523682940
-------------------------   --------------------


                            ***************************************
                            *     ORCA property calculations      *
                            ***************************************

                                    ---------------------
                                    Active property flags
                                    ---------------------
   (+) Dipole Moment
   (+) Chemical Shifts
   (+) Nuclear properties (Hyperfine,Quadrupole)


------------------------------------------------------------------------------
                       ORCA ELECTRIC PROPERTIES CALCULATION
------------------------------------------------------------------------------

Dipole Moment Calculation                       ... on
Quadrupole Moment Calculation                   ... off
Polarizability Calculation                      ... off
GBWName                                         ... Ar-4.gbw
Electron density                                ... Ar-4.scfp
The origin for moment calculation is the CENTER OF MASS  = ( 5.248840, -29.413542 -5.046019)

-------------
DIPOLE MOMENT
-------------
                                X             Y             Z
Electronic contribution:     -0.00126       0.00024      -0.00207
Nuclear contribution   :      0.00111      -0.00041       0.00291
                        -----------------------------------------
Total Dipole Moment    :     -0.00015      -0.00017       0.00084
                        -----------------------------------------
Magnitude (a.u.)       :      0.00087
Magnitude (Debye)      :      0.00221



--------------------
Rotational spectrum 
--------------------
 
Rotational constants in cm-1:     0.126616     0.126602     0.063304 
Rotational constants in MHz :  3795.847663  3795.430792  1897.821020 

 Dipole components along the rotational axes: 
x,y,z [a.u.] :     0.000259    -0.000353     0.000749 
x,y,z [Debye]:     0.000659    -0.000898     0.001904 

 
------------------------------------------------------------------------------
                                ORCA EPR/NMR CALCULATION
------------------------------------------------------------------------------

GBWName                      ... Ar-4.gbw
Electron density             ... Ar-4.scfp
Spin density                 ... Ar-4.scfr
Treatment of gauge           ... GIAO (approximations 1/2el = 0,0)
Details of the CP(SCF) procedure:
       Solver   = POPLE   
       MaxIter  =    64   
       Tolerance=    1.000e-03
       Op-0     =   0- 23 =>  24-349
Multiplicity                 ... 1
g-tensor                     ... 0
NMR chemical shifts          ... 1
NMR spin-spin couplings      ... 0
NMR spectrum                 ... 0
Number of nuclei for epr/nmr ... 14
   Nucleus:   0C 
       Hyperfine : Isotope=   13 I=   0.500 P= 134.188
       Quadrupole: Isotope=   13 I=   0.500 Q=   0.000
       Spin-Orbit: Zeff=   3.600
       Nuclear Spin-Spin: Gn=   0.000
       EPRNMR Input: 
       rho(0)=N f(grad)=N a(iso)=N a(dip)=N a(orb)=N sigma(nmr)=Y spin-spin(nmr)=all-N,DSO-N,PSO-N,FC-N,SD-N
   Nucleus:   1C 
       Hyperfine : Isotope=   13 I=   0.500 P= 134.188
       Quadrupole: Isotope=   13 I=   0.500 Q=   0.000
       Spin-Orbit: Zeff=   3.600
       Nuclear Spin-Spin: Gn=   0.000
       EPRNMR Input: 
       rho(0)=N f(grad)=N a(iso)=N a(dip)=N a(orb)=N sigma(nmr)=Y spin-spin(nmr)=all-N,DSO-N,PSO-N,FC-N,SD-N
   Nucleus:   2C 
       Hyperfine : Isotope=   13 I=   0.500 P= 134.188
       Quadrupole: Isotope=   13 I=   0.500 Q=   0.000
       Spin-Orbit: Zeff=   3.600
       Nuclear Spin-Spin: Gn=   0.000
       EPRNMR Input: 
       rho(0)=N f(grad)=N a(iso)=N a(dip)=N a(orb)=N sigma(nmr)=Y spin-spin(nmr)=all-N,DSO-N,PSO-N,FC-N,SD-N
   Nucleus:   3C 
       Hyperfine : Isotope=   13 I=   0.500 P= 134.188
       Quadrupole: Isotope=   13 I=   0.500 Q=   0.000
       Spin-Orbit: Zeff=   3.600
       Nuclear Spin-Spin: Gn=   0.000
       EPRNMR Input: 
       rho(0)=N f(grad)=N a(iso)=N a(dip)=N a(orb)=N sigma(nmr)=Y spin-spin(nmr)=all-N,DSO-N,PSO-N,FC-N,SD-N
   Nucleus:   4C 
       Hyperfine : Isotope=   13 I=   0.500 P= 134.188
       Quadrupole: Isotope=   13 I=   0.500 Q=   0.000
       Spin-Orbit: Zeff=   3.600
       Nuclear Spin-Spin: Gn=   0.000
       EPRNMR Input: 
       rho(0)=N f(grad)=N a(iso)=N a(dip)=N a(orb)=N sigma(nmr)=Y spin-spin(nmr)=all-N,DSO-N,PSO-N,FC-N,SD-N
   Nucleus:   5C 
       Hyperfine : Isotope=   13 I=   0.500 P= 134.188
       Quadrupole: Isotope=   13 I=   0.500 Q=   0.000
       Spin-Orbit: Zeff=   3.600
       Nuclear Spin-Spin: Gn=   0.000
       EPRNMR Input: 
       rho(0)=N f(grad)=N a(iso)=N a(dip)=N a(orb)=N sigma(nmr)=Y spin-spin(nmr)=all-N,DSO-N,PSO-N,FC-N,SD-N
   Nucleus:   6C 
       Hyperfine : Isotope=   13 I=   0.500 P= 134.188
       Quadrupole: Isotope=   13 I=   0.500 Q=   0.000
       Spin-Orbit: Zeff=   3.600
       Nuclear Spin-Spin: Gn=   0.000
       EPRNMR Input: 
       rho(0)=N f(grad)=N a(iso)=N a(dip)=N a(orb)=N sigma(nmr)=Y spin-spin(nmr)=all-N,DSO-N,PSO-N,FC-N,SD-N
   Nucleus:   7H 
       Hyperfine : Isotope=    1 I=   0.500 P= 533.552
       Quadrupole: Isotope=    2 I=   1.000 Q=   0.003
       Spin-Orbit: Zeff=   1.000
       Nuclear Spin-Spin: Gn=   0.000
       EPRNMR Input: 
       rho(0)=N f(grad)=N a(iso)=N a(dip)=N a(orb)=N sigma(nmr)=Y spin-spin(nmr)=all-N,DSO-N,PSO-N,FC-N,SD-N
   Nucleus:   8H 
       Hyperfine : Isotope=    1 I=   0.500 P= 533.552
       Quadrupole: Isotope=    2 I=   1.000 Q=   0.003
       Spin-Orbit: Zeff=   1.000
       Nuclear Spin-Spin: Gn=   0.000
       EPRNMR Input: 
       rho(0)=N f(grad)=N a(iso)=N a(dip)=N a(orb)=N sigma(nmr)=Y spin-spin(nmr)=all-N,DSO-N,PSO-N,FC-N,SD-N
   Nucleus:   9H 
       Hyperfine : Isotope=    1 I=   0.500 P= 533.552
       Quadrupole: Isotope=    2 I=   1.000 Q=   0.003
       Spin-Orbit: Zeff=   1.000
       Nuclear Spin-Spin: Gn=   0.000
       EPRNMR Input: 
       rho(0)=N f(grad)=N a(iso)=N a(dip)=N a(orb)=N sigma(nmr)=Y spin-spin(nmr)=all-N,DSO-N,PSO-N,FC-N,SD-N
   Nucleus:  10H 
       Hyperfine : Isotope=    1 I=   0.500 P= 533.552
       Quadrupole: Isotope=    2 I=   1.000 Q=   0.003
       Spin-Orbit: Zeff=   1.000
       Nuclear Spin-Spin: Gn=   0.000
       EPRNMR Input: 
       rho(0)=N f(grad)=N a(iso)=N a(dip)=N a(orb)=N sigma(nmr)=Y spin-spin(nmr)=all-N,DSO-N,PSO-N,FC-N,SD-N
   Nucleus:  11H 
       Hyperfine : Isotope=    1 I=   0.500 P= 533.552
       Quadrupole: Isotope=    2 I=   1.000 Q=   0.003
       Spin-Orbit: Zeff=   1.000
       Nuclear Spin-Spin: Gn=   0.000
       EPRNMR Input: 
       rho(0)=N f(grad)=N a(iso)=N a(dip)=N a(orb)=N sigma(nmr)=Y spin-spin(nmr)=all-N,DSO-N,PSO-N,FC-N,SD-N
   Nucleus:  12H 
       Hyperfine : Isotope=    1 I=   0.500 P= 533.552
       Quadrupole: Isotope=    2 I=   1.000 Q=   0.003
       Spin-Orbit: Zeff=   1.000
       Nuclear Spin-Spin: Gn=   0.000
       EPRNMR Input: 
       rho(0)=N f(grad)=N a(iso)=N a(dip)=N a(orb)=N sigma(nmr)=Y spin-spin(nmr)=all-N,DSO-N,PSO-N,FC-N,SD-N
   Nucleus:  13H 
       Hyperfine : Isotope=    1 I=   0.500 P= 533.552
       Quadrupole: Isotope=    2 I=   1.000 Q=   0.003
       Spin-Orbit: Zeff=   1.000
       Nuclear Spin-Spin: Gn=   0.000
       EPRNMR Input: 
       rho(0)=N f(grad)=N a(iso)=N a(dip)=N a(orb)=N sigma(nmr)=Y spin-spin(nmr)=all-N,DSO-N,PSO-N,FC-N,SD-N
Forming RHS of the CP-SCF equations         ... 
Calculating right hand sides for GIAO treatment        ... 
  Entering RightHandSide GIAO. ScalHFX=    0.0000 NeedHFX=0
     -> 1-electron GIAO integrals will be done analytically
     -> RI used in SCF. Same chosen for GIAO calculation.
     Making grid for GIAO integrations   ...

GRID GIAO
---------

General Integration Accuracy     IntAcc      ... 4.388
Radial Grid Type                 RadialGrid  ... OptM3 with GC (2021)
Angular Grid (max. ang.)         AngularGrid ... 4 (Lebedev-302)
Angular grid pruning method      GridPruning ... 4 (adaptive)
Weight generation scheme         WeightScheme... Becke
Basis function cutoff            BFCut       ... 1.0000e-10
Integration weight cutoff        WCut        ... 1.0000e-14
Angular grids for H and He will be reduced by one unit
Partially contracted basis set               ... off
Rotationally invariant grid construction     ... off

Total number of grid points                  ...    64761
Total number of batches                      ...     1019
Average number of points per batch           ...       63
Average number of grid points per atom       ...     4626

  One-electron GIAO integrals (SHARK)     ... done
  Calculating G(B)[P]                     ... (RI-J: SHARK-ok) (copy J to G-ok) => dG/dB done
  DFT XC-terms                            ... done
  Extracting occupied and virtual blocks  ... 
  Operator  0  NO=  24 NV= 326 
  Transforming and RHS contribution       ... done
  Adding eps_i * S(B)_ai terms            ... done

  GIAO profiling information: 
    Total GIAO time               ...      18.5 sec
       GIAO 1-electron integrals  ...       0.1 sec (  0.4%)
       GIAO RI-J                  ...       3.9 sec ( 20.9%)
       GIAO XC-terms              ...      13.8 sec ( 74.6%)
       Right hand side assembly   ...       0.0 sec (  0.1%)

  GIAO right hand side done


Forming final perturbed densities           ... done
Transforming perturbed density to AO basis  ... done

Magnetic field perturbation calculated in 18.546 sec

---------------
CHEMICAL SHIFTS
---------------

Note: using conversion factor for au to ppm alpha^2/2 =   26.625677252 
GIAO: Analytic para- and diamagnetic shielding integrals (SHARK)       ...done
 --------------
 Nucleus   0C :
 --------------

Diamagnetic contribution to the shielding tensor (ppm) : 
           251.965         10.663       -40.727
            10.680        257.997         8.799
           -40.172          8.585       153.651

Paramagnetic contribution to the shielding tensor (ppm): 
          -262.504         16.505       106.828
            16.490       -330.608       -43.503
           106.144        -43.363       -19.664

Total shielding tensor (ppm): 
           -10.539         27.168        66.101
            27.169        -72.611       -34.704
            65.972        -34.779       133.988


 Diagonalized sT*s matrix:
 
 sDSO           270.780          254.845          137.988  iso=     221.204
 sPSO          -283.932         -352.711           23.868  iso=    -204.258
        ---------------  ---------------  ---------------
 Total          -13.153          -97.866          161.856  iso=      16.946

 --------------
 Nucleus   1C :
 --------------

Diamagnetic contribution to the shielding tensor (ppm) : 
           254.609         -1.185       -38.760
            -1.170        255.676        11.721
           -38.572         11.635       164.349

Paramagnetic contribution to the shielding tensor (ppm): 
          -257.854        -32.648        95.703
           -32.674       -341.207       -25.216
            95.531        -25.065       -24.748

Total shielding tensor (ppm): 
            -3.245        -33.833        56.943
           -33.844        -85.532       -13.495
            56.959        -13.430       139.601


 Diagonalized sT*s matrix:
 
 sDSO           270.781          254.847          149.006  iso=     224.878
 sPSO          -283.961         -352.714           12.865  iso=    -207.937
        ---------------  ---------------  ---------------
 Total          -13.179          -97.868          161.871  iso=      16.941

 --------------
 Nucleus   2C :
 --------------

Diamagnetic contribution to the shielding tensor (ppm) : 
           249.003          4.092       -16.786
             4.208        269.880         5.736
           -16.885          5.454       208.597

Paramagnetic contribution to the shielding tensor (ppm): 
          -314.408         -0.290       100.545
            -0.380       -282.563       -25.827
           100.581        -25.477       -79.516

Total shielding tensor (ppm): 
           -65.406          3.802        83.758
             3.828        -12.683       -20.091
            83.696        -20.022       129.081


 Diagonalized sT*s matrix:
 
 sDSO           270.787          254.847          201.847  iso=     242.493
 sPSO          -283.895         -352.658          -39.934  iso=    -225.496
        ---------------  ---------------  ---------------
 Total          -13.109          -97.811          161.913  iso=      16.998

 --------------
 Nucleus   3C :
 --------------

Diamagnetic contribution to the shielding tensor (ppm) : 
           265.506         -8.513         9.096
            -8.392        263.339         0.050
             8.633         -0.176       289.313

Paramagnetic contribution to the shielding tensor (ppm): 
          -299.461        -38.457        57.438
           -38.615       -315.483        -6.007
            57.756         -5.697      -152.243

Total shielding tensor (ppm): 
           -33.956        -46.970        66.534
           -47.007        -52.144        -5.958
            66.389         -5.873       137.070


 Diagonalized sT*s matrix:
 
 sDSO           270.787          254.846          292.524  iso=     272.719
 sPSO          -283.946         -352.688         -130.555  iso=    -255.729
        ---------------  ---------------  ---------------
 Total          -13.158          -97.841          161.970  iso=      16.990

 --------------
 Nucleus   4C :
 --------------

Diamagnetic contribution to the shielding tensor (ppm) : 
           279.073         -1.482        22.762
            -1.509        255.854        -8.597
            23.040         -8.601       332.688

Paramagnetic contribution to the shielding tensor (ppm): 
          -272.098          0.348        33.609
             0.360       -350.253       -18.614
            33.498        -18.591      -194.251

Total shielding tensor (ppm): 
             6.975         -1.134        56.371
            -1.149        -94.398       -27.211
            56.539        -27.192       138.437


 Diagonalized sT*s matrix:
 
 sDSO           270.778          254.844          341.994  iso=     289.205
 sPSO          -283.894         -352.688         -180.020  iso=    -272.201
        ---------------  ---------------  ---------------
 Total          -13.116          -97.844          161.974  iso=      17.005

 --------------
 Nucleus   5C :
 --------------

Diamagnetic contribution to the shielding tensor (ppm) : 
           266.258          5.173        17.571
             5.199        266.550        -6.839
            17.622         -6.906       305.645

Paramagnetic contribution to the shielding tensor (ppm): 
          -309.320         24.173        60.244
            24.150       -302.808       -24.887
            60.316        -24.857      -175.466

Total shielding tensor (ppm): 
           -43.061         29.346        77.814
            29.350        -36.258       -31.727
            77.938        -31.763       130.179


 Diagonalized sT*s matrix:
 
 sDSO           270.783          254.847          312.823  iso=     279.484
 sPSO          -283.987         -352.732         -150.875  iso=    -262.531
        ---------------  ---------------  ---------------
 Total          -13.204          -97.885          161.948  iso=      16.953

 --------------
 Nucleus   6C :
 --------------

Diamagnetic contribution to the shielding tensor (ppm) : 
           252.750         -3.092        -9.583
            -3.052        268.765         5.540
            -9.802          5.512       231.117

Paramagnetic contribution to the shielding tensor (ppm): 
          -314.274        -26.932        88.081
           -26.927       -288.633       -13.651
            88.347        -13.753       -98.768

Total shielding tensor (ppm): 
           -61.524        -30.024        78.498
           -29.979        -19.868        -8.112
            78.545         -8.242       132.349


 Diagonalized sT*s matrix:
 
 sDSO           270.784          254.842          227.006  iso=     250.877
 sPSO          -283.899         -352.683          -65.092  iso=    -233.892
        ---------------  ---------------  ---------------
 Total          -13.116          -97.842          161.915  iso=      16.986

 --------------
 Nucleus   7H :
 --------------

Diamagnetic contribution to the shielding tensor (ppm) : 
            41.729          5.199        18.254
             5.276         34.922        -7.717
            18.126         -7.891        82.333

Paramagnetic contribution to the shielding tensor (ppm): 
           -18.724         -7.984       -20.349
            -8.065        -10.917         9.365
           -20.214          9.545       -63.297

Total shielding tensor (ppm): 
            23.005         -2.786        -2.096
            -2.788         24.005         1.648
            -2.088          1.654        19.036


 Diagonalized sT*s matrix:
 
 sDSO            89.835           42.219           26.930  iso=      52.995
 sPSO           -71.740          -21.445            0.247  iso=     -30.979
        ---------------  ---------------  ---------------
 Total           18.095           20.774           27.177  iso=      22.015

 --------------
 Nucleus   8H :
 --------------

Diamagnetic contribution to the shielding tensor (ppm) : 
            41.780         -5.222        40.342
            -5.195         43.182        -9.861
            40.458         -9.970       138.069

Paramagnetic contribution to the shielding tensor (ppm): 
           -15.685          5.904       -43.192
             5.873        -22.376         9.896
           -43.309         10.019      -118.930

Total shielding tensor (ppm): 
            26.095          0.682        -2.850
             0.677         20.806         0.036
            -2.851          0.050        19.139


 Diagonalized sT*s matrix:
 
 sDSO           153.887           42.217           26.927  iso=      74.344
 sPSO          -135.794          -21.446            0.248  iso=     -52.330
        ---------------  ---------------  ---------------
 Total           18.093           20.772           27.175  iso=      22.013

 --------------
 Nucleus   9H :
 --------------

Diamagnetic contribution to the shielding tensor (ppm) : 
            46.389         -9.367        24.439
            -9.398         32.274        -5.489
            24.473         -5.412       106.486

Paramagnetic contribution to the shielding tensor (ppm): 
           -24.068         12.342       -25.669
            12.374         -7.061         5.159
           -25.697          5.079       -87.986

Total shielding tensor (ppm): 
            22.321          2.975        -1.231
             2.976         25.213        -0.330
            -1.224         -0.333        18.500


 Diagonalized sT*s matrix:
 
 sDSO           116.005           42.217           26.927  iso=      61.716
 sPSO           -97.917          -21.447            0.249  iso=     -39.705
        ---------------  ---------------  ---------------
 Total           18.088           20.770           27.176  iso=      22.011

 --------------
 Nucleus  10H :
 --------------

Diamagnetic contribution to the shielding tensor (ppm) : 
            36.782          5.096       -11.079
             5.117         28.230         0.652
           -11.231          0.638         8.772

Paramagnetic contribution to the shielding tensor (ppm): 
           -15.870         -6.612         9.891
            -6.631         -1.782         0.786
            10.040          0.799         9.910

Total shielding tensor (ppm): 
            20.912         -1.516        -1.188
            -1.514         26.448         1.438
            -1.191          1.437        18.683


 Diagonalized sT*s matrix:
 
 sDSO             4.644           42.215           26.926  iso=      24.595
 sPSO            13.452          -21.443            0.249  iso=      -2.581
        ---------------  ---------------  ---------------
 Total           18.096           20.772           27.175  iso=      22.014

 --------------
 Nucleus  11H :
 --------------

Diamagnetic contribution to the shielding tensor (ppm) : 
            14.452          9.177       -39.538
             9.230         39.093        10.974
           -39.513         10.822       -80.695

Paramagnetic contribution to the shielding tensor (ppm): 
            10.861        -10.991        36.709
           -11.040        -17.602        -9.947
            36.679         -9.809        99.939

Total shielding tensor (ppm): 
            25.314         -1.814        -2.828
            -1.810         21.491         1.028
            -2.834          1.013        19.244


 Diagonalized sT*s matrix:
 
 sDSO           -96.295           42.217           26.929  iso=      -9.050
 sPSO           114.396          -21.446            0.248  iso=      31.066
        ---------------  ---------------  ---------------
 Total           18.100           20.771           27.177  iso=      22.016

 --------------
 Nucleus  12H :
 --------------

Diamagnetic contribution to the shielding tensor (ppm) : 
            14.046         -1.323       -45.915
            -1.308         36.621        16.117
           -45.742         16.028       -92.298

Paramagnetic contribution to the shielding tensor (ppm): 
            10.715          4.130        43.771
             4.116        -14.162       -16.681
            43.598        -16.594       111.115

Total shielding tensor (ppm): 
            24.761          2.807        -2.144
             2.808         22.459        -0.564
            -2.143         -0.566        18.817


 Diagonalized sT*s matrix:
 
 sDSO          -110.773           42.215           26.927  iso=     -13.877
 sPSO           128.866          -21.444            0.248  iso=      35.890
        ---------------  ---------------  ---------------
 Total           18.093           20.771           27.174  iso=      22.012

 --------------
 Nucleus  13H :
 --------------

Diamagnetic contribution to the shielding tensor (ppm) : 
            33.657          0.128       -22.513
             0.109         26.611         5.791
           -22.589          5.864       -19.145

Paramagnetic contribution to the shielding tensor (ppm): 
           -13.051          0.920        21.703
             0.940          0.374        -5.227
            21.774         -5.298        37.591

Total shielding tensor (ppm): 
            20.606          1.049        -0.810
             1.049         26.985         0.564
            -0.814          0.566        18.446


 Diagonalized sT*s matrix:
 
 sDSO           -28.021           42.217           26.928  iso=      13.708
 sPSO            46.108          -21.442            0.247  iso=       8.304
        ---------------  ---------------  ---------------
 Total           18.087           20.775           27.175  iso=      22.012



--------------------------------
CHEMICAL SHIELDING SUMMARY (ppm)
--------------------------------


  Nucleus  Element    Isotropic     Anisotropy
  -------  -------  ------------   ------------
      0       C           16.946        217.365 
      1       C           16.941        217.395 
      2       C           16.998        217.373 
      3       C           16.990        217.469 
      4       C           17.005        217.455 
      5       C           16.953        217.492 
      6       C           16.986        217.394 
      7       H           22.015          7.742 
      8       H           22.013          7.743 
      9       H           22.011          7.748 
     10       H           22.014          7.741 
     11       H           22.016          7.741 
     12       H           22.012          7.743 
     13       H           22.012          7.744 



Maximum memory used throughout the entire EPRNMR-calculation: 131.9 MB

Timings for individual modules:

Sum of individual times         ...       38.719 sec (=   0.645 min)
GTO integral calculation        ...        0.321 sec (=   0.005 min)   0.8 %
SCF iterations                  ...       17.618 sec (=   0.294 min)  45.5 %
EPR/NMR calculation             ...       20.779 sec (=   0.346 min)  53.7 %
                             ****ORCA TERMINATED NORMALLY****
TOTAL RUN TIME: 0 days 0 hours 0 minutes 38 seconds 889 msec
