14
	Energy:      10.8015634
C         -8.01116        1.17504       -0.65260
C         -7.69766        1.88639        0.43950
H         -9.01454        0.77741       -0.76509
H         -7.29160        0.97806       -1.43902
O         -6.46592        2.42653        0.66539
H         -8.46820        2.04731        1.18638
C         -5.34013        2.30919       -0.13522
C         -4.71627        0.93086       -0.12215
H         -4.57219        3.01793        0.23809
H         -5.59037        2.60686       -1.17600
C         -5.15569       -0.09959        0.61085
H         -3.84035        0.77714       -0.74528
H         -6.01344       -0.01955        1.26778
H         -4.63915       -1.05263        0.56058
