14
 energy: -18.769942887004 gnorm: 0.074217908332 xtb: 6.5.1 (579679a)
C           -8.01116000000000        1.17504000000000       -0.65260000000000
C           -7.69766000000000        1.88639000000000        0.43950000000000
H           -9.01454000000000        0.77741000000000       -0.76509000000000
H           -7.29160000000000        0.97806000000000       -1.43902000000000
O           -6.46592000000000        2.42653000000000        0.66539000000000
H           -8.46820000000000        2.04731000000000        1.18638000000000
C           -5.34013000000000        2.30919000000000       -0.13522000000000
C           -4.71627000000000        0.93086000000000       -0.12215000000000
H           -4.57219000000000        3.01793000000000        0.23809000000000
H           -5.59037000000000        2.60686000000000       -1.17600000000000
C           -5.15569000000000       -0.09959000000000        0.61085000000000
H           -3.84035000000000        0.77714000000000       -0.74528000000000
H           -6.01344000000000       -0.01955000000000        1.26778000000000
H           -4.63915000000000       -1.05263000000000        0.56058000000000
14
 energy: -18.776123864672 gnorm: 0.031915426146 xtb: 6.5.1 (579679a)
C           -7.99747171018779        1.18204588969755       -0.66136422586853
C           -7.67749104435627        1.88641537393341        0.42061836211938
H           -8.99408529212882        0.79219987854692       -0.77740196871862
H           -7.28720512800805        0.96379364442050       -1.43939886865742
O           -6.47113093324930        2.44149865905341        0.70431004009898
H           -8.42097239081310        2.06877157307804        1.18277836033625
C           -5.36261034447854        2.28988303838131       -0.13040480704812
C           -4.73320135859526        0.92082533906876       -0.12120211030715
H           -4.61671501192749        3.00958887989473        0.24100327704678
H           -5.60138720749837        2.58033335355622       -1.17072749055825
C           -5.14839995802920       -0.09899838908753        0.61136148538161
H           -3.86452539000023        0.79941188682882       -0.75659524833359
H           -6.00297922134383       -0.02743008246092        1.26284356706635
H           -4.63849500938377       -1.04738904491123        0.56738962744232
14
 energy: -18.777663107344 gnorm: 0.005790337602 xtb: 6.5.1 (579679a)
C           -7.97952845615870        1.18177081608872       -0.67140200260164
C           -7.65808112099059        1.87904896097274        0.40579370990484
H           -8.97766348175826        0.81039647392651       -0.79628568412907
H           -7.27599330811913        0.95078582963031       -1.44883975362692
O           -6.47361739903292        2.44798050795704        0.73845349172482
H           -8.38475411867685        2.09356673220612        1.17750825924881
C           -5.37577593252382        2.28146973881321       -0.12371322904908
C           -4.75025360501537        0.91539156812260       -0.11968458363830
H           -4.63808202989492        3.00813731240839        0.23819563830341
H           -5.63294948023081        2.56062107474817       -1.15789747157507
C           -5.14732894160159       -0.10555203011192        0.61274488604826
H           -3.89516036196539        0.82574283820288       -0.77813468105065
H           -5.98845269574116       -0.03610715538637        1.27929432039816
H           -4.63902906829048       -1.05230266757839        0.57717710004244
14
 energy: -18.777781384040 gnorm: 0.003521068430 xtb: 6.5.1 (579679a)
C           -7.97596262947853        1.18625002272925       -0.67749058423015
C           -7.65927465930783        1.88293757454922        0.40137814560351
H           -8.97527009538232        0.81777303750795       -0.80559143204759
H           -7.26724131996721        0.94003986269861       -1.44764922802982
O           -6.47515658777362        2.44424764149025        0.74671945009415
H           -8.38602665929446        2.09976443721230        1.17360233306406
C           -5.37676026301133        2.28099258807154       -0.11912780750922
C           -4.75123795630269        0.91504839734315       -0.11789107024463
H           -4.63614862562601        3.00855989014837        0.23509953589288
H           -5.64877334387068        2.55772860577542       -1.14953515037157
C           -5.13919419455436       -0.10615073879407        0.62064579523311
H           -3.90730821193101        0.82903456415920       -0.79127477148746
H           -5.97708162332444       -0.03673594508607        1.29286071881018
H           -4.64123383017551       -1.05853993780510        0.57146406522257
14
 energy: -18.777854744169 gnorm: 0.003072827416 xtb: 6.5.1 (579679a)
C           -7.97024858884470        1.18739806802208       -0.68239279847632
C           -7.66193461861355        1.88382214837908        0.39946694687892
H           -8.97483518389933        0.83394979222985       -0.82261127354099
H           -7.25674212697209        0.93021939571440       -1.44586750959849
O           -6.47719070712075        2.43383534855437        0.75890335735206
H           -8.39600179075994        2.11387084370629        1.16253599522424
C           -5.37827076744356        2.27916195321956       -0.11211385639740
C           -4.75524118176935        0.91181669274698       -0.12265897071711
H           -4.63378612713026        3.00655708575863        0.23438493241744
H           -5.66897277091075        2.55667788509195       -1.13670284016504
C           -5.13291525365152       -0.10980798787373        0.62164855013050
H           -3.92388955668902        0.82922445899771       -0.81167935067838
H           -5.95219377222125       -0.03304314158553        1.31875146320407
H           -4.63444755397393       -1.06273254296164        0.57154535436650
14
 energy: -18.777887540785 gnorm: 0.002111535883 xtb: 6.5.1 (579679a)
C           -7.96944192257627        1.18857301860307       -0.68348513631945
C           -7.66430265146624        1.88491466060601        0.39956089199104
H           -8.97537400704831        0.84094297328305       -0.82896538065114
H           -7.25418153435774        0.92790527309300       -1.44332461864735
O           -6.47768202029866        2.42742527555319        0.76323423145727
H           -8.40292227155780        2.11914293698913        1.15662859054604
C           -5.37962982177210        2.27721370665806       -0.11015374287092
C           -4.75412481588971        0.91078717737714       -0.12377905803960
H           -4.63569463143573        3.00480679320576        0.23616440978061
H           -5.67360538136086        2.55668522853479       -1.13316961962402
C           -5.12528187628744       -0.10849371301842        0.62666505595659
H           -3.93059216757163        0.82523286725688       -0.82153261391393
H           -5.94238221832970       -0.03067547482877        1.32510447407256
H           -4.63145468004782       -1.06351072331289        0.57026251626232
14
 energy: -18.777921837047 gnorm: 0.001361081079 xtb: 6.5.1 (579679a)
C           -7.97091022969930        1.19343712268867       -0.68693271010657
C           -7.66880881158443        1.88870427449809        0.39783510051530
H           -8.97739640624655        0.85203276852141       -0.83865490696897
H           -7.25160252143613        0.92286735491645       -1.43853276179351
O           -6.47833844729271        2.41674456991298        0.76932673661323
H           -8.41224843298381        2.12473005665580        1.14825151027057
C           -5.38245065126033        2.27339996267867       -0.10771944236811
C           -4.75487999331146        0.90776193454110       -0.12927258368741
H           -4.64026346204858        2.99986362682622        0.24308655736078
H           -5.67673714239563        2.55909749755771       -1.12857851519724
C           -5.11596036750729       -0.10780890076551        0.63038123028405
H           -3.94080420107339        0.81826782945262       -0.83660254013433
H           -5.92356903441625       -0.02564862552488        1.33816349158276
H           -4.62270029874416       -1.06249947195932        0.57245883362946
14
 energy: -18.777939679902 gnorm: 0.001539333053 xtb: 6.5.1 (579679a)
C           -7.97265645467701        1.19425889534641       -0.68980870597604
C           -7.67140842330503        1.88694323528746        0.39678402516442
H           -8.98287007920483        0.86827905057883       -0.85278554719173
H           -7.25129653177552        0.91992900516720       -1.43676534117010
O           -6.47953911271771        2.40584320249837        0.77514463689275
H           -8.42000832491276        2.13342299451549        1.13883434088142
C           -5.38585899924648        2.26937709989253       -0.10497896234753
C           -4.75663861652348        0.90473681973022       -0.13420285189216
H           -4.64543312376086        2.99508748762769        0.25157617355941
H           -5.67936468908738        2.56091961082863       -1.12425158782489
C           -5.10467609433107       -0.10739469634403        0.63628968730720
H           -3.95386346545157        0.81267482427224       -0.85419609171974
H           -5.90053084756380       -0.02100844760470        1.35670194872821
H           -4.61252523744252       -1.06211908179632        0.57486827558879
14
 energy: -18.777949767473 gnorm: 0.000789183580 xtb: 6.5.1 (579679a)
C           -7.97521115610303        1.19693966896824       -0.69334881900625
C           -7.67354041661845        1.88849307527753        0.39377683716445
H           -8.98445801116237        0.87098866708642       -0.85703753450399
H           -7.25167162469181        0.91821221069313       -1.43762371502081
O           -6.48118296237683        2.40401932667321        0.77563170299249
H           -8.42113403852488        2.13499868011590        1.13663432756287
C           -5.38659827490381        2.26835744294978       -0.10277309780868
C           -4.75880737294597        0.90323643718192       -0.13573512851247
H           -4.64520839379991        2.99245538781375        0.25639225563363
H           -5.67882196499757        2.56287390837011       -1.12165887292060
C           -5.10079583836546       -0.10799179953829        0.63843825333586
H           -3.96171393505129        0.81054979592232       -0.86219762201009
H           -5.88959571333743       -0.01976252852204        1.36687498698213
H           -4.60793029712120       -1.06242027299195        0.57583642611147
14
 energy: -18.777957034085 gnorm: 0.000680891086 xtb: 6.5.1 (579679a)
C           -7.97681259304047        1.19755086426981       -0.69614269074693
C           -7.67557621109173        1.88860486142311        0.39133111641868
H           -8.98598289195627        0.87252292876704       -0.86177067743109
H           -7.25229467842500        0.92006203019327       -1.44024403090212
O           -6.48361501607441        2.40403627248695        0.77466407251801
H           -8.42236616912565        2.13565058803292        1.13501701723414
C           -5.38716833314770        2.26782833454005       -0.10083230528504
C           -4.76181033457945        0.90167008489740       -0.13694056783139
H           -4.64387580154025        2.98907317669025        0.26102388906911
H           -5.67704623410391        2.56592513023527       -1.11951923110442
C           -5.09612170895666       -0.10802251097000        0.64263066994876
H           -3.97160623418708        0.80764489876189       -0.87046077548600
H           -5.87777684982879       -0.01846544376714        1.37843521178099
H           -4.60461694394266       -1.06313121556081        0.57601830181732
14
 energy: -18.777962453401 gnorm: 0.000714198174 xtb: 6.5.1 (579679a)
C           -7.97690298299305        1.19900727656429       -0.69966246166771
C           -7.67725723677052        1.88795955079640        0.38955621139746
H           -8.98538479109568        0.87261934504495       -0.86699991963418
H           -7.25097739552501        0.92382951276788       -1.44333186611439
O           -6.48578428738281        2.40363772900280        0.77466108862190
H           -8.42465746430316        2.13438150449749        1.13287979249932
C           -5.38791152751293        2.26737934219479       -0.09914481838576
C           -4.76591173215768        0.89969534094034       -0.13917900129882
H           -4.64304813847664        2.98473777909510        0.26712749150534
H           -5.67467871386919        2.57055915037812       -1.11735163879472
C           -5.09194000300162       -0.10716042047692        0.64742930865646
H           -3.98550422651671        0.80194515438608       -0.88287067876817
H           -5.86437301783900       -0.01466251256004        1.39262377270090
H           -4.60233848255602       -1.06297875263126        0.57747271928238
14
 energy: -18.777966805987 gnorm: 0.000485661727 xtb: 6.5.1 (579679a)
C           -7.97463752984461        1.19955626852457       -0.70312117661625
C           -7.67796142729384        1.88658202833487        0.38807284094034
H           -8.98272464152398        0.87193397329873       -0.87270686629156
H           -7.24739303833367        0.92815821162334       -1.44683717734035
O           -6.48752172266311        2.40370031474751        0.77490847902943
H           -8.42639863028961        2.12928856306041        1.13138177359717
C           -5.38850150809193        2.26757653227145       -0.09797021934981
C           -4.77185679362350        0.89746530907307       -0.14307597629154
H           -4.64201156562200        2.98032933523347        0.27369940338398
H           -5.67242843373353        2.57697173988198       -1.11498646216150
C           -5.08902370934110       -0.10496810067709        0.65282950313262
H           -4.00201079030990        0.79445385446537       -0.89645315637717
H           -5.85019711441709       -0.00723565879047        1.40896249379475
H           -4.60400309491217       -1.06286237104718        0.57850654054990
