[Molden Format]
[Title]
                                                                                
[Atoms] AU
 c     1    6 -.11893908487555E+02 0.50429817264572E+01 0.33513799346330E-01
 c     2    6 -.11829515493230E+02 0.27855053899549E+01 0.21337464054148E+00
 c     3    6 -.98173258567052E+01 0.69680507067678E+01 0.27078550765288E+00
 c     4    6 -.76411582678184E+01 0.52193299530809E+01 0.80055513708927E+00
 c     5    6 -.75767846266803E+01 0.29618506852024E+01 0.98038581317544E+00
 c     6    6 -.96532307836864E+01 0.10367222019245E+01 0.74244043460982E+00
 o     7    8 -.95939141082603E+01 -.11542825227332E+01 0.91567622227888E+00
 o     8    8 -.98763711160675E+01 0.91589455752572E+01 0.96069578484580E-01
[GTO]
    1 0
 s    5 1.00
 0.12384016938000E+04 0.55173650481097E-02
 0.18629004992000E+03 0.41088828555946E-01
 0.42251176346000E+02 0.18225382126490E+00
 0.11676557932000E+02 0.46828459437429E+00
 0.35930506482000E+01 0.44575817336002E+00
 s    1 1.00
 0.40245147363000E+00 0.10000000000000E+01
 s    1 1.00
 0.13090182668000E+00 0.10000000000000E+01
 p    3 1.00
 0.94680970621000E+01 0.56888332011037E-01
 0.20103545142000E+01 0.31294059336471E+00
 0.54771004707000E+00 0.76065016509135E+00
 p    1 1.00
 0.15268613795000E+00 0.10000000000000E+01
 d    1 1.00
 0.80000000000000E+00 0.10000000000000E+01
 
    2 0
 s    5 1.00
 0.12384016938000E+04 0.55173650481097E-02
 0.18629004992000E+03 0.41088828555946E-01
 0.42251176346000E+02 0.18225382126490E+00
 0.11676557932000E+02 0.46828459437429E+00
 0.35930506482000E+01 0.44575817336002E+00
 s    1 1.00
 0.40245147363000E+00 0.10000000000000E+01
 s    1 1.00
 0.13090182668000E+00 0.10000000000000E+01
 p    3 1.00
 0.94680970621000E+01 0.56888332011037E-01
 0.20103545142000E+01 0.31294059336471E+00
 0.54771004707000E+00 0.76065016509135E+00
 p    1 1.00
 0.15268613795000E+00 0.10000000000000E+01
 d    1 1.00
 0.80000000000000E+00 0.10000000000000E+01
 
    3 0
 s    5 1.00
 0.12384016938000E+04 0.55173650481097E-02
 0.18629004992000E+03 0.41088828555946E-01
 0.42251176346000E+02 0.18225382126490E+00
 0.11676557932000E+02 0.46828459437429E+00
 0.35930506482000E+01 0.44575817336002E+00
 s    1 1.00
 0.40245147363000E+00 0.10000000000000E+01
 s    1 1.00
 0.13090182668000E+00 0.10000000000000E+01
 p    3 1.00
 0.94680970621000E+01 0.56888332011037E-01
 0.20103545142000E+01 0.31294059336471E+00
 0.54771004707000E+00 0.76065016509135E+00
 p    1 1.00
 0.15268613795000E+00 0.10000000000000E+01
 d    1 1.00
 0.80000000000000E+00 0.10000000000000E+01
 
    4 0
 s    5 1.00
 0.12384016938000E+04 0.55173650481097E-02
 0.18629004992000E+03 0.41088828555946E-01
 0.42251176346000E+02 0.18225382126490E+00
 0.11676557932000E+02 0.46828459437429E+00
 0.35930506482000E+01 0.44575817336002E+00
 s    1 1.00
 0.40245147363000E+00 0.10000000000000E+01
 s    1 1.00
 0.13090182668000E+00 0.10000000000000E+01
 p    3 1.00
 0.94680970621000E+01 0.56888332011037E-01
 0.20103545142000E+01 0.31294059336471E+00
 0.54771004707000E+00 0.76065016509135E+00
 p    1 1.00
 0.15268613795000E+00 0.10000000000000E+01
 d    1 1.00
 0.80000000000000E+00 0.10000000000000E+01
 
    5 0
 s    5 1.00
 0.12384016938000E+04 0.55173650481097E-02
 0.18629004992000E+03 0.41088828555946E-01
 0.42251176346000E+02 0.18225382126490E+00
 0.11676557932000E+02 0.46828459437429E+00
 0.35930506482000E+01 0.44575817336002E+00
 s    1 1.00
 0.40245147363000E+00 0.10000000000000E+01
 s    1 1.00
 0.13090182668000E+00 0.10000000000000E+01
 p    3 1.00
 0.94680970621000E+01 0.56888332011037E-01
 0.20103545142000E+01 0.31294059336471E+00
 0.54771004707000E+00 0.76065016509135E+00
 p    1 1.00
 0.15268613795000E+00 0.10000000000000E+01
 d    1 1.00
 0.80000000000000E+00 0.10000000000000E+01
 
    6 0
 s    5 1.00
 0.12384016938000E+04 0.55173650481097E-02
 0.18629004992000E+03 0.41088828555946E-01
 0.42251176346000E+02 0.18225382126490E+00
 0.11676557932000E+02 0.46828459437429E+00
 0.35930506482000E+01 0.44575817336002E+00
 s    1 1.00
 0.40245147363000E+00 0.10000000000000E+01
 s    1 1.00
 0.13090182668000E+00 0.10000000000000E+01
 p    3 1.00
 0.94680970621000E+01 0.56888332011037E-01
 0.20103545142000E+01 0.31294059336471E+00
 0.54771004707000E+00 0.76065016509135E+00
 p    1 1.00
 0.15268613795000E+00 0.10000000000000E+01
 d    1 1.00
 0.80000000000000E+00 0.10000000000000E+01
 
    7 0
 s    5 1.00
 0.22661767785000E+04 -.53893503921743E-02
 0.34087010191000E+03 -.40234721388960E-01
 0.77363135167000E+02 -.18008184205526E+00
 0.21479644940000E+02 -.46828857657651E+00
 0.66589433124000E+01 -.44692617160187E+00
 s    1 1.00
 0.80975975668000E+00 0.10000000000000E+01
 s    1 1.00
 0.25530772234000E+00 0.10000000000000E+01
 p    3 1.00
 0.17721504317000E+02 0.62630248763161E-01
 0.38635505440000E+01 0.33331138482352E+00
 0.10480920883000E+01 0.74148638308122E+00
 p    1 1.00
 0.27641544411000E+00 0.10000000000000E+01
 d    1 1.00
 0.12000000000000E+01 0.10000000000000E+01
 
    8 0
 s    5 1.00
 0.22661767785000E+04 -.53893503921743E-02
 0.34087010191000E+03 -.40234721388960E-01
 0.77363135167000E+02 -.18008184205526E+00
 0.21479644940000E+02 -.46828857657651E+00
 0.66589433124000E+01 -.44692617160187E+00
 s    1 1.00
 0.80975975668000E+00 0.10000000000000E+01
 s    1 1.00
 0.25530772234000E+00 0.10000000000000E+01
 p    3 1.00
 0.17721504317000E+02 0.62630248763161E-01
 0.38635505440000E+01 0.33331138482352E+00
 0.10480920883000E+01 0.74148638308122E+00
 p    1 1.00
 0.27641544411000E+00 0.10000000000000E+01
 d    1 1.00
 0.12000000000000E+01 0.10000000000000E+01
 
[MO]
 Sym=     1a   
 Ene= -.20624983490329E+02
 Spin= Alpha
 Occup= 2.000000
     1 -.59576028888971E-06
     2 0.12571884688693E-03
     3 -.94667962634087E-03
     4 -.10564174639119E-03
     5 -.10782164727571E-03
     6 -.11367409868362E-04
     7 -.13262141554198E-02
     8 0.79499320200763E-03
     9 -.30259072292101E-03
    10 -.13942381357859E-03
    11 0.60747358279349E-04
    12 0.78676455299243E-04
    13 0.33494972401041E-04
    14 -.50533298049145E-04
    15 0.83597678482715E-05
    16 0.97737618709957E-05
    17 -.10783899576558E-04
    18 -.46908606022036E-02
    19 -.16544274939284E-03
    20 0.11470687683107E-03
    21 -.38902503973610E-04
    22 -.25031231598875E-02
    23 -.18319793263154E-02
    24 -.32315002912680E-03
    25 -.19455274114805E-03
    26 0.11202574364955E-03
    27 0.82526997498499E-04
    28 -.91169446100489E-04
    29 -.53502495470377E-04
    30 -.18564287747739E-04
    31 -.65774498505929E-04
    32 -.18885887294337E-02
    33 -.29344817104223E-02
    34 -.18768909937758E-04
    35 0.71144572091248E-03
    36 -.56661989733502E-04
    37 0.28043364476182E-03
    38 -.98550394470792E-02
    39 0.78785674530265E-03
    40 -.28953599792137E-03
    41 0.56326077353311E-03
    42 -.27372477561175E-03
    43 -.26952802933944E-04
    44 -.27940816715913E-06
    45 -.77623580298786E-04
    46 -.86453009851546E-06
    47 0.13179308614704E-03
    48 -.95043698294632E-03
    49 0.11063830939729E-03
    50 -.98726570980750E-04
    51 0.27632162702363E-04
    52 0.13063621847267E-02
    53 0.87823283589473E-03
    54 0.17416025198402E-03
    55 -.13607908583099E-03
    56 0.54804703484701E-04
    57 0.81274382346288E-04
    58 -.53026619619994E-04
    59 -.43429794011899E-04
    60 -.69614952030849E-05
    61 0.10067223401582E-04
    62 -.16642476669848E-04
    63 -.46894123110849E-02
    64 0.15953147656106E-03
    65 0.12835332023478E-03
    66 0.19696600088284E-04
    67 0.25756296138850E-02
    68 -.16450194548627E-02
    69 0.59459026402174E-03
    70 -.20123993775604E-03
    71 0.12283268235012E-03
    72 0.78407255405930E-04
    73 0.61954396503356E-04
    74 -.66146378258915E-04
    75 0.85653758043585E-05
    76 -.85983705877184E-04
    77 -.26335244940355E-02
    78 -.24552162008300E-02
    79 0.26273693615519E-04
    80 -.98371281342042E-03
    81 0.77695740613315E-04
    82 -.39276781672350E-03
    83 0.14027460788373E-01
    84 -.11123769124804E-02
    85 -.39563064705665E-03
    86 0.77146644284365E-03
    87 -.37583579578699E-03
    88 -.36882273161487E-04
    89 -.23121605764777E-07
    90 -.10556860078489E-03
    91 0.80016609095656E+00
    92 -.29592594727924E-01
    93 0.23825140938824E-01
    94 0.64948125587876E-04
    95 -.24070815859445E-02
    96 0.19037787891517E-03
    97 -.13209004819564E-03
    98 0.49648409251378E-02
    99 -.39201339339595E-03
   100 0.41494167937327E-04
   101 -.24988891473036E-03
   102 0.20839474679304E-03
   103 0.62982864496538E-05
   104 -.37643999286153E-04
   105 0.41144870257279E-04
   106 0.58313304163120E+00
   107 -.21574730959144E-01
   108 0.17395117772024E-01
   109 -.46960525909118E-04
   110 0.17521102854491E-02
   111 -.13962277494816E-03
   112 0.95011467892361E-04
   113 -.36235303762752E-02
   114 0.28863162003461E-03
   115 0.29288983854955E-04
   116 -.18281925696185E-03
   117 0.15353027310689E-03
   118 0.45221469955709E-05
   119 -.28018208803509E-04
   120 0.30405902731997E-04
 Sym=     2a   
 Ene= -.20624982101678E+02
 Spin= Alpha
 Occup= 2.000000
     1 0.34720987021755E-04
     2 -.44517030607773E-03
     3 -.12365970437870E-01
     4 -.19252172930955E-03
     5 -.83933997510468E-04
     6 -.29081908192658E-04
     7 -.42861208070521E-02
     8 0.28997302273327E-02
     9 -.10030010475247E-02
    10 -.22361426152823E-03
    11 0.21219843130466E-03
    12 0.11415830223568E-04
    13 0.98255621803925E-04
    14 -.59189443907143E-04
    15 0.15357104168943E-05
    16 -.33202240743438E-04
    17 0.46395109390686E-03
    18 0.11473920205651E-01
    19 0.15301285877674E-03
    20 -.34163175045645E-04
    21 0.30614078287156E-04
    22 0.35138854442618E-02
    23 0.28262605639254E-02
    24 0.43502489433245E-03
    25 0.16044184211567E-03
    26 -.16921614898188E-03
    27 0.87743068662186E-05
    28 0.11016664968916E-03
    29 0.24330589665982E-04
    30 0.35355840053426E-04
    31 -.76315735164192E-04
    32 -.27285105404161E-02
    33 0.11016078185016E-02
    34 -.27034296188193E-04
    35 0.10004831407011E-02
    36 -.79838774969975E-04
    37 0.40612585456927E-03
    38 -.15166695616422E-01
    39 0.12083770641665E-02
    40 -.39188008130302E-03
    41 0.76786542834698E-03
    42 -.37598534704395E-03
    43 -.36171614356293E-04
    44 0.81829915292715E-06
    45 -.10599456005640E-03
    46 0.34598236123569E-04
    47 -.44492198384770E-03
    48 -.12359027313047E-01
    49 0.19632650044053E-03
    50 -.67645498986468E-04
    51 0.41038943393698E-04
    52 0.41119238043333E-02
    53 0.32513745100820E-02
    54 0.51147772070094E-03
    55 -.21236287546670E-03
    56 0.19538202014958E-03
    57 0.16980855317124E-04
    58 -.13277287243168E-03
    59 -.39409080218738E-04
    60 -.39415729321004E-04
    61 -.33236793535685E-04
    62 0.46232713353830E-03
    63 0.11481687132450E-01
    64 -.15092400669759E-03
    65 -.46884021000656E-04
    66 -.24195341649611E-04
    67 -.36741934851599E-02
    68 0.25170234346208E-02
    69 -.86053705998090E-03
    70 0.17020718275053E-03
    71 -.18340558379059E-03
    72 0.13198401040051E-04
    73 -.83275321640826E-04
    74 0.40743946392569E-04
    75 0.10512644666131E-05
    76 0.52503717517715E-04
    77 0.20190500883988E-02
    78 -.19471886611396E-02
    79 -.20091122507735E-04
    80 0.73457399607531E-03
    81 -.58084339553151E-04
    82 0.30201663034368E-03
    83 -.11420356626827E-01
    84 0.90200846055127E-03
    85 0.28437673930850E-03
    86 -.55855079514727E-03
    87 0.27417405583877E-03
    88 0.26290277480550E-04
    89 -.85792689599829E-06
    90 0.76534697557836E-04
    91 -.58313572858806E+00
    92 0.21537726329998E-01
    93 -.17257454862996E-01
    94 -.47902925411247E-04
    95 0.17607484089162E-02
    96 -.13936009071381E-03
    97 0.98717724431475E-04
    98 -.36001293725839E-02
    99 0.28495052113901E-03
   100 -.33345205439922E-04
   101 0.17970261510169E-03
   102 -.14635740966177E-03
   103 -.46841845428062E-05
   104 0.25541541043679E-04
   105 -.29286906591327E-04
   106 0.80016805301386E+00
   107 -.29565588172957E-01
   108 0.23724608634906E-01
   109 -.65236204726750E-04
   110 0.24132088796548E-02
   111 -.19235949064187E-03
   112 0.13382385600470E-03
   113 -.49473701437573E-02
   114 0.39459808046711E-03
   115 0.44453424985392E-04
   116 -.24755785980529E-03
   117 0.20310443481990E-03
   118 0.63322146952083E-05
   119 -.35849427459642E-04
   120 0.40777888138201E-04
 Sym=     3a   
 Ene= -.11442211003661E+02
 Spin= Alpha
 Occup= 2.000000
     1 -.13837194654814E-02
     2 0.19921743992880E-03
     3 -.40045120123516E-01
     4 0.36121222981780E-03
     5 0.15741747906847E-03
     6 0.54540915964940E-04
     7 -.76893461039032E-02
     8 0.10368239765852E-01
     9 -.21826505007860E-02
    10 0.16484694508276E-03
    11 0.70572265203616E-04
    12 -.23541921028638E-03
    13 0.47238897789361E-03
    14 0.50403649419193E-04
    15 0.59894655238896E-04
    16 0.14137694763143E-02
    17 -.22099405953260E-03
    18 0.40196603184535E-01
    19 -.38135522695680E-03
    20 0.12961107297685E-03
    21 -.79623409030580E-04
    22 0.71410640391906E-02
    23 0.11008060859061E-01
    24 0.49088711963239E-03
    25 -.21153678947526E-03
    26 -.34772362445465E-05
    27 0.21501402571980E-03
    28 0.45501834823942E-03
    29 -.12991243987116E-03
    30 0.10451357143558E-03
    31 -.69354523760012E+00
    32 -.27942262406313E-01
    33 0.25673054900222E-01
    34 -.48121630844493E-05
    35 0.12859003519122E-03
    36 -.10243367737311E-04
    37 0.55596429370841E-03
    38 -.21026274961699E-01
    39 0.16718142095445E-02
    40 0.14593953947420E-03
    41 -.68612055529307E-03
    42 0.54018101581886E-03
    43 0.19068442074214E-04
    44 -.89482094440926E-04
    45 0.11117660854855E-03
    46 -.13854835624776E-02
    47 0.19925002603324E-03
    48 -.40026268160162E-01
    49 -.36972493825394E-03
    50 0.12610901882328E-03
    51 -.77224480370540E-04
    52 0.70695060885260E-02
    53 0.11001406182233E-01
    54 0.47787682697211E-03
    55 0.20907887018721E-03
    56 0.37417872087681E-05
    57 -.21282065739598E-03
    58 -.44815604351895E-03
    59 0.12857002119378E-03
    60 -.10326190040985E-03
    61 0.14119445574108E-02
    62 -.22089412991563E-03
    63 0.40213813940137E-01
    64 0.37265033916857E-03
    65 0.16189815278343E-03
    66 0.56285777528097E-04
    67 -.77612118391450E-02
    68 0.10367883999205E-01
    69 -.21950500223767E-02
    70 -.16653565191447E-03
    71 -.71304500678173E-04
    72 0.23784015259264E-03
    73 -.47941933141850E-03
    74 -.50958277223671E-04
    75 -.61110246525254E-04
    76 0.70739490799708E+00
    77 0.28473213158550E-01
    78 -.26015708666264E-01
    79 -.46831013798145E-05
    80 0.12617849244380E-03
    81 -.10475534449610E-04
    82 0.56523358734363E-03
    83 -.21319037996620E-01
    84 0.16862937462766E-02
    85 -.15002795390895E-03
    86 0.70023795401041E-03
    87 -.55021000010146E-03
    88 -.19681759387002E-04
    89 0.90806095698192E-04
    90 -.11255252351397E-03
    91 0.54314729186461E-03
    92 0.15553444256970E-02
    93 -.12683474069122E-01
    94 -.95450050911797E-06
    95 0.29886546162088E-04
    96 -.23578925408261E-05
    97 0.11590886108652E-03
    98 -.42193882672597E-02
    99 0.33330826987614E-03
   100 -.13044772438081E-03
   101 0.19880578499050E-03
   102 -.68358060609687E-04
   103 -.11255471685051E-04
   104 -.12393165671962E-04
   105 -.24939541025749E-04
   106 -.53273555721495E-03
   107 -.15282369321392E-02
   108 0.12475008489757E-01
   109 -.88782538324790E-06
   110 0.27999735415263E-04
   111 -.22911776262617E-05
   112 0.11294133067367E-03
   113 -.41375955445767E-02
   114 0.33085449081860E-03
   115 0.12772599688981E-03
   116 -.19510654864060E-03
   117 0.67380551750783E-04
   118 0.11005889562278E-04
   119 0.12029691325945E-04
   120 0.24616464438456E-04
 Sym=     4a   
 Ene= -.11442176890409E+02
 Spin= Alpha
 Occup= 2.000000
     1 0.14407751924582E-02
     2 -.11018177209195E-02
     3 0.89363133504524E-02
     4 -.58169211182019E-03
     5 -.22837039367617E-03
     6 -.89571278719530E-04
     7 0.37169097260098E-02
     8 -.80965767504738E-04
     9 0.68760072648020E-03
    10 -.89712188901494E-04
    11 -.36483246144003E-04
    12 0.12619543504550E-03
    13 -.36159428236658E-03
    14 -.18704257997034E-04
    15 -.52270036459499E-04
    16 0.14162409268269E-02
    17 -.11011224508449E-02
    18 0.82281289356595E-02
    19 -.58430470657957E-03
    20 0.17602664193849E-03
    21 -.12015132963131E-03
    22 0.35654677256409E-02
    23 0.22699054689699E-03
    24 0.63681305269689E-03
    25 -.11861779999037E-03
    26 0.14653073982566E-04
    27 0.10396472600781E-03
    28 0.34046654849758E-03
    29 -.75998077666931E-04
    30 0.71461510255298E-04
    31 0.70750800636301E+00
    32 0.27132963275366E-01
    33 -.17602552484325E-01
    34 -.25576216099785E-05
    35 0.11959124103968E-03
    36 -.96414626076071E-05
    37 -.39334911805615E-03
    38 0.14983664575676E-01
    39 -.11908388897225E-02
    40 -.20862786402450E-03
    41 0.71536678936732E-03
    42 -.50673892534282E-03
    43 -.23580057435372E-04
    44 0.68757155224960E-04
    45 -.11137923871806E-03
    46 0.14438891540915E-02
    47 -.11052380344687E-02
    48 0.90195957154368E-02
    49 0.59167961890528E-03
    50 -.17853672817091E-03
    51 0.12197060703382E-03
    52 -.37053887740599E-02
    53 -.44433106767606E-03
    54 -.64696011563149E-03
    55 -.12275904643628E-03
    56 0.14607893231113E-04
    57 0.10815115320516E-03
    58 0.34934309873977E-03
    59 -.78615039538368E-04
    60 0.73727765564684E-04
    61 0.14131628867571E-02
    62 -.10977034518062E-02
    63 0.81444923993337E-02
    64 0.57438893713350E-03
    65 0.22523183664739E-03
    66 0.88745455791168E-04
    67 -.35645183203684E-02
    68 -.12382547433888E-03
    69 -.64504286440819E-03
    70 -.86417763189922E-04
    71 -.35106944602428E-04
    72 0.12152470779235E-03
    73 -.35215731020183E-03
    74 -.17744310293472E-04
    75 -.51282237258542E-04
    76 0.69366057814997E+00
    77 0.26575432472756E-01
    78 -.17092685732858E-01
    79 0.27444145676846E-05
    80 -.12213788111462E-03
    81 0.93375875535635E-05
    82 0.38337498131535E-03
    83 -.14566216358732E-01
    84 0.11517464090275E-02
    85 -.20569876325207E-03
    86 0.70177137429573E-03
    87 -.49607261104367E-03
    88 -.23349497350348E-04
    89 0.66962888890947E-04
    90 -.10835197111566E-03
    91 0.52125531405827E-03
    92 0.13549179221730E-02
    93 -.10414600064450E-01
    94 -.26150155825337E-05
    95 0.95087907730044E-04
    96 -.74898794762816E-05
    97 0.11197145237430E-03
    98 -.40798022595789E-02
    99 0.32232064362108E-03
   100 -.13652386940466E-03
   101 0.18452632804770E-03
   102 -.48002458643035E-04
   103 -.11442473383951E-04
   104 -.18214900973956E-04
   105 -.21907372152459E-04
   106 0.53188805106677E-03
   107 0.13853784173822E-02
   108 -.10663083641281E-01
   109 0.26076628093149E-05
   110 -.95654207979253E-04
   111 0.76761827201513E-05
   112 -.11352797987438E-03
   113 0.41621028938306E-02
   114 -.33272738196814E-03
   115 -.13907584041171E-03
   116 0.18840581791558E-03
   117 -.49329977503872E-04
   118 -.11643089711827E-04
   119 -.18455724638788E-04
   120 -.22501600558780E-04
 Sym=     5a   
 Ene= -.11303137542500E+02
 Spin= Alpha
 Occup= 2.000000
     1 0.47848692703602E+00
     2 0.15195826806525E-01
     3 -.26771820751704E-02
     4 0.46442191245670E-03
     5 0.29081827805780E-03
     6 0.63496086295510E-04
     7 -.40268034370812E-03
     8 0.27922382740447E-02
     9 -.28205644776010E-03
    10 -.32714322991498E-03
    11 0.63619213733587E-03
    12 -.30904890742089E-03
    13 0.16789474354817E-03
    14 -.16230231787670E-04
    15 -.50554326214880E-04
    16 0.51193428344916E+00
    17 0.16472195477456E-01
    18 -.29312146170382E-02
    19 0.50933289044810E-03
    20 -.21268189495273E-03
    21 0.10920654349733E-03
    22 -.35441632269874E-03
    23 -.25141457030343E-02
    24 0.12195880186169E-03
    25 -.30751595315300E-03
    26 0.62061959286846E-03
    27 -.31310363971546E-03
    28 -.25386567903814E-03
    29 0.22543363024910E-04
    30 -.12780276459043E-03
    31 0.58863517299215E-04
    32 0.38189323681401E-05
    33 -.24164667597389E-03
    34 0.68770015424409E-03
    35 0.71079544644375E-05
    36 0.12563301255500E-03
    37 0.46644800921427E-02
    38 0.23382997995397E-04
    39 0.85402753700829E-03
    40 0.29356039904391E-04
    41 -.26915992148777E-04
    42 -.24400477556133E-05
    43 -.44009217180466E-03
    44 0.42128467589711E-04
    45 -.79648213796756E-04
    46 -.51125238751391E+00
    47 -.16450290450369E-01
    48 0.29216022755683E-02
    49 0.50859103518774E-03
    50 -.21252721477273E-03
    51 0.10920450682836E-03
    52 -.35123567391022E-03
    53 -.25174906084430E-02
    54 0.12319529690408E-03
    55 0.30726146405755E-03
    56 -.61987575820385E-03
    57 0.31261429414629E-03
    58 0.25358796131334E-03
    59 -.22566652253726E-04
    60 0.12772440017205E-03
    61 -.47811678907468E+00
    62 -.15186003401827E-01
    63 0.26752125481556E-02
    64 0.46390912736600E-03
    65 0.29028775778045E-03
    66 0.63525277237424E-04
    67 -.40465943842665E-03
    68 0.27897547393867E-02
    69 -.28161780362264E-03
    70 0.32693712381306E-03
    71 -.63563591049765E-03
    72 0.30869878668460E-03
    73 -.16792202327351E-03
    74 0.16187304244541E-04
    75 0.50371006328898E-04
    76 -.60679124690207E-04
    77 -.51848275122095E-05
    78 0.24604670271903E-03
    79 0.68809980626013E-03
    80 0.64775337157410E-05
    81 0.12574297048535E-03
    82 0.46606534175706E-02
    83 0.23263805030888E-04
    84 0.85316923390468E-03
    85 -.29910251646500E-04
    86 0.27085764341122E-04
    87 0.28244873053771E-05
    88 0.44027171005932E-03
    89 -.42101726093521E-04
    90 0.79695873659757E-04
    91 0.25628541198147E-05
    92 0.30330534817290E-04
    93 -.18677562972746E-03
    94 0.27079893480871E-03
    95 0.93584997017829E-05
    96 0.48980742007750E-04
    97 -.14837068784678E-02
    98 -.83495120514556E-04
    99 -.26597150287638E-03
   100 0.37435964163974E-05
   101 -.22117462204491E-05
   102 -.15318501959484E-05
   103 -.52176257404411E-04
   104 0.52967600565061E-05
   105 -.96370510472432E-05
   106 -.25625149622401E-05
   107 -.30296616474952E-04
   108 0.18587526089654E-03
   109 0.27079810735152E-03
   110 0.94314316327418E-05
   111 0.48974729213543E-04
   112 -.14842214713307E-02
   113 -.83444019547751E-04
   114 -.26605757352113E-03
   115 -.36907237963250E-05
   116 0.22036115165811E-05
   117 0.14871122797438E-05
   118 0.52218972733221E-04
   119 -.53104785139141E-05
   120 0.96456562345511E-05
 Sym=     6a   
 Ene= -.11303074411188E+02
 Spin= Alpha
 Occup= 2.000000
     1 0.47767270227556E+00
     2 0.14260268744698E-01
     3 -.50744855158296E-02
     4 0.55602437317636E-03
     5 0.36579904458833E-03
     6 0.74665746136235E-04
     7 -.29173372076280E-03
     8 -.15341225292657E-03
     9 -.41775803666108E-04
    10 -.24637365393966E-03
    11 0.61746478725855E-03
    12 -.37109113331889E-03
    13 0.61708666109807E-04
    14 0.23642373574186E-04
    15 -.74396503483490E-04
    16 0.51176435663568E+00
    17 0.15579996307980E-01
    18 -.58012343359585E-02
    19 0.59582978416996E-03
    20 -.27880756649105E-03
    21 0.12995961207293E-03
    22 -.86181942255609E-03
    23 0.81317375876606E-03
    24 -.21833052628288E-03
    25 -.24372622507652E-03
    26 0.62288662316639E-03
    27 -.37916039808988E-03
    28 -.13722468914984E-03
    29 0.41851013955394E-04
    30 -.11249340008013E-03
    31 -.17070174751171E-02
    32 -.12849596376988E-02
    33 0.41195198677064E-02
    34 -.57213966155271E-04
    35 0.60555400037830E-03
    36 -.55685750616216E-04
    37 0.42476501429440E-03
    38 -.24369686649840E-04
    39 0.79147954011675E-04
    40 -.44764039260955E-03
    41 0.14821976236405E-03
    42 0.29942063024550E-03
    43 -.10535857460041E-04
    44 -.16315003215079E-03
    45 0.13437217229753E-04
    46 0.51217813738883E+00
    47 0.15592486967183E-01
    48 -.58046315729183E-02
    49 -.59621340773188E-03
    50 0.27917090827038E-03
    51 -.13029038959973E-03
    52 0.86202656812269E-03
    53 -.80888039851544E-03
    54 0.21883561951102E-03
    55 -.24406154964293E-03
    56 0.62349862915397E-03
    57 -.37943707951105E-03
    58 -.13738299601010E-03
    59 0.41848633918261E-04
    60 -.11260663889993E-03
    61 0.47832966637008E+00
    62 0.14282018004766E-01
    63 -.50771196139348E-02
    64 -.55663201639807E-03
    65 -.36598288675574E-03
    66 -.74939798168043E-04
    67 0.29202644334121E-03
    68 0.15192177545520E-03
    69 0.42399417109683E-04
    70 -.24672999617457E-03
    71 0.61823014367165E-03
    72 -.37150014749708E-03
    73 0.61997567520686E-04
    74 0.23616827845021E-04
    75 -.74419840554200E-04
    76 -.17074720234764E-02
    77 -.12849278216933E-02
    78 0.41203541558918E-02
    79 0.56513964775714E-04
    80 -.60576664710289E-03
    81 0.55350559216636E-04
    82 -.42958976151757E-03
    83 0.22253673688272E-04
    84 -.80874619308323E-04
    85 -.44769044094142E-03
    86 0.14812862662075E-03
    87 0.29956181432067E-03
    88 -.10991605003036E-04
    89 -.16312794154447E-03
    90 0.13239903552455E-04
    91 0.30082931505688E-06
    92 0.31717737934559E-04
    93 -.84781128388450E-03
    94 0.13432025689033E-05
    95 -.68677267666039E-04
    96 0.53298071474852E-05
    97 0.58857859263143E-04
    98 -.64664737352110E-04
    99 0.15661336754528E-04
   100 0.42874508869992E-04
   101 -.10558826993639E-04
   102 -.32315681876354E-04
   103 0.74366278532668E-05
   104 0.15921225324812E-04
   105 -.71892376643760E-06
   106 0.28059256182654E-06
   107 0.31476590342380E-04
   108 -.84628020186123E-03
   109 -.16237821178724E-05
   110 0.68644370302868E-04
   111 -.54479410497947E-05
   112 -.57272254182475E-04
   113 0.64572771549029E-04
   114 -.15207931868541E-04
   115 0.42870527420556E-04
   116 -.10578478417905E-04
   117 -.32292049002652E-04
   118 0.73827944799959E-05
   119 0.15915737547091E-04
   120 -.74450307620703E-06
 Sym=     7a   
 Ene= -.11299167953714E+02
 Spin= Alpha
 Occup= 2.000000
     1 0.51090677135125E+00
     2 0.19725378338009E-01
     3 -.10696913707119E-01
     4 0.40009312784182E-03
     5 -.56878288029794E-03
     6 0.11564113596078E-03
     7 -.81316396980588E-02
     8 -.11390832215538E-01
     9 -.64197092932652E-03
    10 -.12134226519129E-03
    11 0.32747527268833E-03
    12 -.20613300749703E-03
    13 0.29606240909496E-03
    14 -.43504747603552E-05
    15 0.85287337821154E-05
    16 -.47692700238879E+00
    17 -.18694214568560E-01
    18 0.10364943010257E-01
    19 -.32398084069429E-03
    20 -.61736207810672E-03
    21 -.13392760174866E-04
    22 0.87250950957405E-02
    23 -.10675548401692E-01
    24 0.23935526318274E-02
    25 0.75542969033689E-04
    26 -.24077653075747E-03
    27 0.16523356172378E-03
    28 0.31066691993691E-03
    29 -.44895654219689E-04
    30 0.92990365947389E-04
    31 -.51047960839815E-04
    32 -.42383422445319E-04
    33 0.76607967337323E-04
    34 0.11296841086773E-02
    35 0.66501096025979E-04
    36 0.20229185242531E-03
    37 -.13224449619456E-01
    38 -.54450357242985E-03
    39 -.23855720214807E-02
    40 0.12150491984713E-04
    41 -.36018234311881E-04
    42 0.23867742327167E-04
    43 -.57358403370458E-03
    44 0.43180139978843E-04
    45 -.10122040631982E-03
    46 -.47991129334038E+00
    47 -.18808141953303E-01
    48 0.10384702547954E-01
    49 0.32700916591793E-03
    50 0.62099625645126E-03
    51 0.13884106392640E-04
    52 -.87340541011873E-02
    53 0.10703957859744E-01
    54 -.24007889756332E-02
    55 0.75438888305680E-04
    56 -.24192440094855E-03
    57 0.16648551264287E-03
    58 0.31262832065257E-03
    59 -.45373063940957E-04
    60 0.93608943224030E-04
    61 0.51381342025870E+00
    62 0.19836786972028E-01
    63 -.10716594591379E-01
    64 -.40324136597025E-03
    65 0.57212255590994E-03
    66 -.11661835040572E-03
    67 0.81390911203186E-02
    68 0.11421151621923E-01
    69 0.64470791204055E-03
    70 -.12137347033932E-03
    71 0.32882210931509E-03
    72 -.20744863897578E-03
    73 0.29796297987118E-03
    74 -.41989832259639E-05
    75 0.87077746248262E-05
    76 -.61527550352195E-04
    77 -.42519941971854E-04
    78 0.12229051767724E-03
    79 -.11295276139971E-02
    80 -.70118820611952E-04
    81 -.20198502295353E-03
    82 0.13225782971481E-01
    83 0.51400613111131E-03
    84 0.23878535804209E-02
    85 0.10765215897418E-04
    86 -.36873241625562E-04
    87 0.26108025728145E-04
    88 -.57364921343904E-03
    89 0.42121114554034E-04
    90 -.10096044590962E-03
    91 0.34152684864057E-06
    92 0.48108627204450E-05
    93 -.50061272921921E-04
    94 0.27865445498435E-04
    95 -.11804767378198E-05
    96 0.51958432010585E-05
    97 -.17797162388524E-02
    98 -.78615780440531E-04
    99 -.32060845167827E-03
   100 0.76467637938835E-05
   101 -.96027307745565E-05
   102 0.19559669806730E-05
   103 -.13143223546858E-03
   104 0.11625689677067E-04
   105 -.23406199294718E-04
   106 -.13746179795531E-06
   107 -.84437570846192E-06
   108 -.15743782183763E-04
   109 -.27828470391829E-04
   110 0.87337875363032E-06
   111 -.51748379974426E-05
   112 0.17796633839336E-02
   113 0.74417919493538E-04
   114 0.32096365376005E-03
   115 0.73715181574417E-05
   116 -.98734040938173E-05
   117 0.25018859363756E-05
   118 -.13142712814419E-03
   119 0.11601792492069E-04
   120 -.23333231517878E-04
 Sym=     8a   
 Ene= -.11299154138033E+02
 Spin= Alpha
 Occup= 2.000000
     1 -.51361548192209E+00
     2 -.19543591630400E-01
     3 0.34323615533327E-02
     4 -.56147835465815E-03
     5 0.55887276596757E-03
     6 -.14447354086926E-03
     7 0.13842091290441E-02
     8 0.49341249422210E-02
     9 -.11444422567853E-03
    10 0.19608283111449E-04
    11 -.25600111021678E-03