[Molden Format]
[Title]
                                                                                
[Atoms] AU
 c     1    6 -.92505246954392E+01 0.13159758624166E+01 -.20377438228111E+01
 h     2    1 -.76435612635470E+01 0.29432340758805E+01 -.23794708712886E+01
 h     3    1 -.10636611805226E+02 0.16420475255144E+01 -.35174334175931E+01
 h     4    1 -.99727509810036E+01 0.16827062717255E+01 -.15078096176117E+00
 h     5    1 -.83281328636138E+01 -.51134306336062E+00 -.21979830668470E+01
 o     6    8 -.57007065541009E+01 0.44174745109959E+01 -.27782099021811E+01
 h     7    1 -.43852558853219E+01 0.31459848301441E+01 -.29373473491758E+01
[GTO]
    1 0
 s    6 1.00
 0.13575349682000E+05 0.60645503603591E-03
 0.20352333680000E+04 0.46979088884982E-02
 0.46322562359000E+03 0.24332477647552E-01
 0.13120019598000E+03 0.97399968307759E-01
 0.42853015891000E+02 0.30195584253780E+00
 0.15584185766000E+02 0.66233609137875E+00
 s    2 1.00
 0.62067138508000E+01 0.65595308539952E+00
 0.25764896527000E+01 0.37585633285142E+00
 s    1 1.00
 0.57696339419000E+00 0.10000000000000E+01
 s    1 1.00
 0.22972831358000E+00 0.10000000000000E+01
 s    1 1.00
 0.95164440028000E-01 0.10000000000000E+01
 p    4 1.00
 0.34697232244000E+02 0.11327220003114E-01
 0.79582622826000E+01 0.76169659202087E-01
 0.23780826883000E+01 0.30192252202676E+00
 0.81433208183000E+00 0.72785027349547E+00
 p    1 1.00
 0.28887547253000E+00 0.10000000000000E+01
 p    1 1.00
 0.10056823671000E+00 0.10000000000000E+01
 d    1 1.00
 0.10970000000000E+01 0.10000000000000E+01
 d    1 1.00
 0.31800000000000E+00 0.10000000000000E+01
 f    1 1.00
 0.76100000000000E+00 0.10000000000000E+01
 
    2 0
 s    3 1.00
 0.34061341000000E+02 0.25439307208879E-01
 0.51235746000000E+01 0.19008594890375E+00
 0.11646626000000E+01 0.85244113011042E+00
 s    1 1.00
 0.32723041000000E+00 0.10000000000000E+01
 s    1 1.00
 0.10307241000000E+00 0.10000000000000E+01
 p    1 1.00
 0.80000000000000E+00 0.10000000000000E+01
 
    3 0
 s    3 1.00
 0.34061341000000E+02 0.25439307208879E-01
 0.51235746000000E+01 0.19008594890375E+00
 0.11646626000000E+01 0.85244113011042E+00
 s    1 1.00
 0.32723041000000E+00 0.10000000000000E+01
 s    1 1.00
 0.10307241000000E+00 0.10000000000000E+01
 p    1 1.00
 0.80000000000000E+00 0.10000000000000E+01
 
    4 0
 s    3 1.00
 0.34061341000000E+02 0.25439307208879E-01
 0.51235746000000E+01 0.19008594890375E+00
 0.11646626000000E+01 0.85244113011042E+00
 s    1 1.00
 0.32723041000000E+00 0.10000000000000E+01
 s    1 1.00
 0.10307241000000E+00 0.10000000000000E+01
 p    1 1.00
 0.80000000000000E+00 0.10000000000000E+01
 
    5 0
 s    3 1.00
 0.34061341000000E+02 0.25439307208879E-01
 0.51235746000000E+01 0.19008594890375E+00
 0.11646626000000E+01 0.85244113011042E+00
 s    1 1.00
 0.32723041000000E+00 0.10000000000000E+01
 s    1 1.00
 0.10307241000000E+00 0.10000000000000E+01
 p    1 1.00
 0.80000000000000E+00 0.10000000000000E+01
 
    6 0
 s    6 1.00
 0.27032382631000E+05 0.57227335211155E-03
 0.40523871392000E+04 0.44353233492995E-02
 0.92232722710000E+03 0.23020107706038E-01
 0.26124070989000E+03 0.92822490667928E-01
 0.85354641351000E+02 0.29378500009671E+00
 0.31035035245000E+02 0.67401604501641E+00
 s    2 1.00
 0.12260860728000E+02 0.63839937025506E+00
 0.49987076005000E+01 0.39534587125718E+00
 s    1 1.00
 0.11703108158000E+01 0.10000000000000E+01
 s    1 1.00
 0.46474740994000E+00 0.10000000000000E+01
 s    1 1.00
 0.18504536357000E+00 0.10000000000000E+01
 p    4 1.00
 0.63274954801000E+02 0.12018332222616E-01
 0.14627049379000E+02 0.83005421790056E-01
 0.44501223456000E+01 0.31991743925964E+00
 0.15275799647000E+01 0.70715542916104E+00
 p    1 1.00
 0.52935117943000E+00 0.10000000000000E+01
 p    1 1.00
 0.17478421270000E+00 0.10000000000000E+01
 d    1 1.00
 0.23140000000000E+01 0.10000000000000E+01
 d    1 1.00
 0.64500000000000E+00 0.10000000000000E+01
 f    1 1.00
 0.14280000000000E+01 0.10000000000000E+01
 
    7 0
 s    3 1.00
 0.34061341000000E+02 0.25439307208879E-01
 0.51235746000000E+01 0.19008594890375E+00
 0.11646626000000E+01 0.85244113011042E+00
 s    1 1.00
 0.32723041000000E+00 0.10000000000000E+01
 s    1 1.00
 0.10307241000000E+00 0.10000000000000E+01
 p    1 1.00
 0.80000000000000E+00 0.10000000000000E+01
 
[MO]
 Sym=     1a   
 Ene= -.19148408116712E+02
 Spin= Alpha
 Occup= 1.000000
     1 0.19837764694747E-04
     2 -.92403366711707E-04
     3 0.27839066953264E-03
     4 -.42976235798564E-03
     5 0.92206902466015E-02
     6 0.67747943863872E-04
     7 0.51492057743687E-04
     8 -.12803746292247E-04
     9 0.39882165975494E-03
    10 0.52434767415174E-03
    11 -.98775726869624E-04
    12 0.18569843535326E-02
    13 0.25773286759225E-02
    14 -.40320121579376E-03
    15 0.43860812864059E-04
    16 0.16287765202998E-05
    17 -.45489589384359E-04
    18 0.60870535328640E-04
    19 -.21569998008518E-04
    20 -.12158734784804E-04
    21 -.73626338832564E-04
    22 0.14174405675787E-03
    23 -.68117717925303E-04
    24 0.24722007420918E-03
    25 -.19147559418799E-05
    26 -.57200087694648E-04
    27 -.20320871644937E-04
    28 0.12736814603865E-05
    29 0.57183928138474E-05
    30 0.37793162392630E-04
    31 0.18075903552790E-04
    32 0.54725614025550E-06
    33 -.10529852176553E-04
    34 -.19784726549053E-04
    35 -.82192851725409E-05
    36 -.10163122332122E-04
    37 0.41298027480385E-04
    38 -.67271184105552E-03
    39 -.11879606542699E-01
    40 0.86320703847966E-03
    41 0.60945156045114E-03
    42 -.17454408185315E-03
    43 0.73625991840690E-04
    44 -.27659313049497E-03
    45 -.67932757745166E-03
    46 0.10676872058716E-04
    47 0.13871769412202E-04
    48 0.43066742404889E-05
    49 0.73071415810516E-04
    50 -.25683523866485E-03
    51 -.69114939038834E-03
    52 0.10586959346766E-04
    53 0.15648617518471E-04
    54 -.12223691709768E-04
    55 0.36070239155471E-04
    56 -.80046597667759E-04
    57 -.13574223375599E-03
    58 0.84852534995258E-04
    59 0.85559228142972E-04
    60 -.18586698828989E-04
    61 0.43489706967406E+00
    62 0.63971154124697E+00
    63 0.35016215560869E-01
    64 -.23520075715101E-01
    65 0.13849450807545E-01
    66 0.43980808576741E-03
    67 -.14168123535563E-02
    68 -.37460628759087E-05
    69 -.60605781997011E-03
    70 0.23084638085304E-02
    71 -.12175662198190E-04
    72 -.16667191959698E-02
    73 -.19279206186890E-02
    74 0.37792498760757E-03
    75 0.86006484470041E-04
    76 0.84411595420171E-04
    77 -.17041807989021E-03
    78 0.13488861063334E-03
    79 -.59853112660396E-04
    80 -.36985425162342E-04
    81 -.19124501627203E-03
    82 -.15231177474413E-03
    83 0.34355679101616E-03
    84 0.27879916684047E-03
    85 0.93381139520463E-04
    86 -.18993164962770E-04
    87 0.10196668852758E-04
    88 -.26098391502890E-04
    89 -.28260301891739E-06
    90 -.27283306665344E-04
    91 0.75993024216365E-04
    92 -.15363385813505E-05
    93 0.13603039846052E-04
    94 -.40978357714046E-04
    95 0.19154903179181E-05
    96 -.20869977905306E-04
    97 0.92493212519936E-03
    98 0.13101002946567E-02
    99 -.12286412089747E-02
   100 -.83946949099527E-03
   101 0.82348269515632E-03
   102 0.10055453211605E-03
 Sym=     1a   
 Ene= -.19130564107174E+02
 Spin= Beta
 Occup= 1.000000
     1 0.16632164926617E-04
     2 -.79008369120170E-04
     3 0.21029804906406E-03
     4 -.28476173100647E-03
     5 0.88609611564136E-02
     6 0.50830154865282E-04
     7 0.35487113500013E-04
     8 -.93384832152495E-05
     9 0.43827701054288E-03
    10 0.56863213025935E-03
    11 -.10632461750579E-03
    12 0.17815318066117E-02
    13 0.24988349306165E-02
    14 -.38818440148611E-03
    15 0.41344225747918E-04
    16 -.23397252406924E-05
    17 -.39004500507225E-04
    18 0.49267145827055E-04
    19 -.19258473202694E-04
    20 -.96814707772157E-05
    21 -.65894207323586E-04
    22 0.13460158321488E-03
    23 -.68707375891297E-04
    24 0.25740852780366E-03
    25 -.39900700888813E-05
    26 -.58931311378434E-04
    27 -.17454717026235E-04
    28 0.55869377923147E-06
    29 0.51846503409854E-05
    30 0.32985814300462E-04
    31 0.16986447230013E-04
    32 0.20585597502255E-06
    33 -.95678540212511E-05
    34 -.17736013591394E-04
    35 -.71617943362290E-05
    36 -.92610392459829E-05
    37 0.54138759499008E-04
    38 -.94443144051750E-03
    39 -.11482253098767E-01
    40 0.72303158323739E-03
    41 0.51905209885523E-03
    42 -.14640314125601E-03
    43 0.70400629475895E-04
    44 -.27387430814856E-03
    45 -.65220183771153E-03
    46 0.63193322633846E-05
    47 0.10300790413189E-04
    48 0.51303778540804E-05
    49 0.69961197945392E-04
    50 -.25497749189327E-03
    51 -.66209274771993E-03
    52 0.61950860961394E-05
    53 0.12007176958498E-04
    54 -.11080144874481E-04
    55 0.37370783441446E-04
    56 -.57520341926048E-04
    57 -.12152046353435E-03
    58 0.77307682068791E-04
    59 0.85117318272224E-04
    60 -.17041289195677E-04
    61 0.43527822431743E+00
    62 0.63981348612041E+00
    63 0.33616342088906E-01
    64 -.22477100518457E-01
    65 0.13364327866834E-01
    66 0.51789483908019E-03
    67 -.12918820468362E-02
    68 -.23000034420550E-04
    69 -.68407411839268E-03
    70 0.21742124249142E-02
    71 0.75328675617648E-05
    72 -.17277953405779E-02
    73 -.19101072400580E-02
    74 0.38721473843954E-03
    75 -.18131143724778E-04
    76 -.22574994272065E-04
    77 0.40706137996844E-04
    78 -.24493501632133E-03
    79 0.22756529259246E-04
    80 0.45433954761659E-04
    81 -.14516707174987E-03
    82 -.12089718131209E-03
    83 0.26606425306197E-03
    84 0.41197364114950E-03
    85 0.61762421160042E-04
    86 -.47781640760616E-04
    87 0.75057905449017E-05
    88 -.21523386471052E-04
    89 -.22294547755641E-05
    90 -.27635813862475E-04
    91 0.67178839509872E-04
    92 0.99866149037103E-06
    93 0.17565739132510E-04
    94 -.38302186356709E-04
    95 0.19924659681827E-05
    96 -.18294644079989E-04
    97 0.92737220499106E-03
    98 0.12836893062030E-02
    99 -.11435896906130E-02
   100 -.79712503660360E-03
   101 0.80558259617052E-03
   102 0.94341914744504E-04
 Sym=     2a   
 Ene= -.10186768197612E+02
 Spin= Alpha
 Occup= 1.000000
     1 0.46665922316368E+00
     2 0.60858510057424E+00
     3 0.36126194230928E-01
     4 -.18727035669451E-01
     5 0.27617329919261E-01
     6 0.18594278870577E-03
     7 0.14176809053093E-03
     8 -.40063974717313E-04
     9 -.13953607641144E-02
    10 -.13445975826796E-02
    11 0.29588140451041E-03
    12 0.11089040163755E-02
    13 0.11646998203176E-02
    14 -.24669300293956E-03
    15 -.24054008545376E-04
    16 0.19004293268983E-05
    17 0.22153579218477E-04
    18 -.42404625473892E-04
    19 0.10388352258345E-04
    20 0.91474614701226E-05
    21 -.22673942737375E-03
    22 -.94009871611708E-04
    23 0.32074929898546E-03
    24 -.59553097752993E-03
    25 0.13633411448662E-03
    26 0.12250926332075E-03
    27 0.12141101145457E-04
    28 -.17949165136878E-03
    29 0.17210090967533E-03
    30 0.35050092098047E-03
    31 0.73240456391051E-04
    32 -.16845537384346E-03
    33 -.36678991747024E-03
    34 0.16757286392152E-03
    35 -.62442225970686E-04
    36 0.10111538095544E-04
    37 -.27160807083455E-03
    38 0.21190866658750E-02
    39 -.79546767784754E-02
    40 0.14510090169311E-02
    41 0.12436190905259E-02
    42 -.30161686727130E-03
    43 -.60744070205699E-03
    44 -.21724331964128E-02
    45 -.50111197282093E-02
    46 -.14353055239478E-02
    47 0.36684625482322E-03
    48 -.15623759345039E-02
    49 -.60933316323618E-03
    50 -.21754506339227E-02
    51 -.50012676184336E-02
    52 -.73833248747487E-03
    53 0.40957843810754E-03
    54 0.19831435131988E-02
    55 -.63718291897533E-03
    56 -.22280033787539E-02
    57 -.50094249179348E-02
    58 0.10029275798607E-02
    59 -.19381455363447E-02
    60 -.17543591223262E-03
    61 0.63248750057280E-05
    62 -.82760601440930E-04
    63 0.78266237836835E-03
    64 -.14277283524809E-02
    65 0.10376769250000E-02
    66 -.24929952631746E-03
    67 -.12779495804257E-03
    68 0.48561750071359E-04
    69 0.10714519896288E-02
    70 0.48591016934193E-03
    71 -.20510317641188E-03
    72 -.27157670882635E-05
    73 0.29549315528119E-03
    74 -.10138680789635E-04
    75 0.45786413942901E-04
    76 -.30501591053247E-05
    77 -.42736254837577E-04
    78 0.80502397052296E-04
    79 -.22049004297509E-04
    80 -.16058729626318E-04
    81 -.21886143209216E-03
    82 0.94840686492298E-05
    83 0.20937736344293E-03
    84 -.46055464265551E-03
    85 0.11003466802263E-03
    86 0.89928214023737E-04
    87 0.41448399804556E-05
    88 -.21757946794900E-04
    89 0.15045812882979E-04
    90 0.26279754066018E-04
    91 0.44551032621180E-04
    92 -.15362291356306E-04
    93 -.31840640437312E-04
    94 -.15359683770648E-04
    95 -.48237848735440E-05
    96 -.15835308642300E-04
    97 -.13400116959658E-03
    98 -.53510146024448E-04
    99 0.81807238493941E-04
   100 0.10656334045590E-03
   101 -.10147580630946E-03
   102 -.14006296039611E-04
 Sym=     2a   
 Ene= -.10179368286854E+02
 Spin= Beta
 Occup= 1.000000
     1 0.46689195383294E+00
     2 0.60870201055044E+00
     3 0.35097385089607E-01
     4 -.17975106574820E-01
     5 0.26745754351749E-01
     6 0.73484030761051E-05
     7 -.21676578874941E-04
     8 -.27894928095745E-05
     9 -.15114641103604E-02
    10 -.14686287515732E-02
    11 0.32040020982755E-03
    12 0.12138503081276E-02
    13 0.12751610773085E-02
    14 -.26890395185953E-03
    15 -.13332919488115E-03
    16 -.60755947915180E-04
    17 0.19408514279633E-03
    18 -.35288154799604E-03
    19 0.81052033340447E-04
    20 0.73668737047724E-04
    21 -.20884771729029E-03
    22 -.93932063787695E-04
    23 0.30277978107799E-03
    24 -.56079163772286E-03
    25 0.12762291049835E-03
    26 0.11560034401486E-03
    27 0.17323905950934E-04
    28 -.17920514862085E-03
    29 0.17004632756212E-03
    30 0.34004658433337E-03
    31 0.61835185909390E-04
    32 -.16811528801784E-03
    33 -.36328904313863E-03
    34 0.17859375063111E-03
    35 -.60025800634016E-04
    36 0.15779827091401E-04
    37 -.25686909447298E-03
    38 0.21509049123014E-02
    39 -.79731922916268E-02
    40 0.12541455725094E-02
    41 0.10612189645120E-02
    42 -.26024044342466E-03
    43 -.61764620344939E-03
    44 -.22383504162801E-02
    45 -.47738666677584E-02
    46 -.14473294681193E-02
    47 0.36832182632330E-03
    48 -.15739563730456E-02
    49 -.61931173343528E-03
    50 -.22412060351953E-02
    51 -.47636051953388E-02
    52 -.74498217527047E-03
    53 0.41132018186741E-03
    54 0.19982530400921E-02
    55 -.64442548124073E-03
    56 -.22924801246240E-02
    57 -.47633155135964E-02
    58 0.10088272913149E-02
    59 -.19548431629959E-02
    60 -.17635968286985E-03
    61 0.47165477367769E-05
    62 -.77306728965136E-04
    63 0.71115974764381E-03
    64 -.13096991547262E-02
    65 0.10244293247887E-02
    66 -.23178397669420E-03
    67 -.12261081021044E-03
    68 0.45322940298910E-04
    69 0.94498978901060E-03
    70 0.42092502183882E-03
    71 -.18062815022546E-03
    72 -.17960017084053E-04
    73 0.31126328701546E-03
    74 -.82848216014519E-05
    75 0.41353699416423E-04
    76 -.16178240919893E-05
    77 -.39735875324433E-04
    78 0.72286157447775E-04
    79 -.20106909084917E-04
    80 -.14547547290454E-04
    81 -.19685026092546E-03
    82 0.57812872545783E-05
    83 0.19106897367088E-03
    84 -.40731187998205E-03
    85 0.99126312114532E-04
    86 0.79979594620385E-04
    87 0.36327862745068E-05
    88 -.18913852771221E-04
    89 0.12940773800460E-04
    90 0.22507247335220E-04
    91 0.38575594717764E-04
    92 -.13241363525767E-04
    93 -.27381141569735E-04
    94 -.13199998410040E-04
    95 -.41205064137991E-05
    96 -.13667626666190E-04
    97 -.11933372375750E-03
    98 -.78745146115951E-05
    99 0.84425109556972E-04
   100 0.92482247906030E-04
   101 -.87398895488700E-04
   102 -.12288999023512E-04
 Sym=     3a   
 Ene= -.99196271624215E+00
 Spin= Alpha
 Occup= 1.000000
     1 -.60655119710937E-02
     2 -.12911967147091E-01
     3 0.18267898655858E-01
     4 0.23469129651044E-01
     5 -.20455552684036E-02
     6 0.88466159382393E-02
     7 0.79563571020911E-02
     8 -.18386185405060E-02
     9 0.96430592933735E-02
    10 0.77126802721471E-02
    11 -.20765245534564E-02
    12 0.21381901715550E-02
    13 -.28690850172778E-03
    14 -.29639258569940E-03
    15 0.26632387852387E-03
    16 0.32330363873658E-03
    17 -.58962751726045E-03
    18 0.11097716416320E-02
    19 -.22097534225733E-03
    20 -.23560860934824E-03
    21 0.10641707611802E-02
    22 0.71549878396444E-03
    23 -.17796695451446E-02
    24 0.21843472997027E-02
    25 -.67399401714599E-03
    26 -.47560190936012E-03
    27 -.11392533436524E-03
    28 -.10224273634915E-03
    29 0.13434256461848E-03
    30 0.42040028499540E-03
    31 0.31133252290198E-03
    32 -.93046914336268E-04
    33 -.26755340979535E-03
    34 -.17415949769260E-03
    35 -.87192549718877E-04
    36 -.12859842760610E-03
    37 0.41295516794092E-01
    38 0.30639512149087E-01
    39 0.43175629075422E-02
    40 0.76672997247445E-02
    41 0.40137665355738E-02
    42 -.14914130511314E-02
    43 0.29960853986473E-02
    44 0.33349521171387E-02
    45 0.18712686627551E-02
    46 0.56004120952213E-03
    47 0.18018405930575E-03
    48 0.13476795717794E-03
    49 0.29998738371377E-02
    50 0.34548522769046E-02
    51 0.16769809145615E-02
    52 0.46747670973946E-03
    53 0.16826891120112E-03
    54 -.36789442090870E-03
    55 0.31278843211814E-02
    56 0.20297695488627E-02
    57 0.49711524299703E-03
    58 0.14570067657483E-03
    59 0.26013516358064E-03
    60 -.37040867800058E-04
    61 -.10049121202135E+00
    62 -.23681444925302E+00
    63 0.35038940483778E+00
    64 0.46235067700811E+00
    65 0.17406188681466E+00
    66 0.33769798306999E-01
    67 -.72414349459775E-01
    68 -.22534512558547E-02
    69 0.22920049759058E-01
    70 -.64383494497903E-01
    71 -.69862281959460E-03
    72 0.38676503344064E-02
    73 -.99405504611094E-02
    74 -.19086974267008E-03
    75 0.13832541817539E-02
    76 0.14369528513177E-02
    77 -.28202070330715E-02
    78 0.70338947252952E-04
    79 -.83239015006237E-03
    80 -.25177703804487E-03
    81 0.36395187215886E-02
    82 0.37713050681336E-02
    83 -.74108237897222E-02
    84 0.59951658252012E-03
    85 -.22486018153304E-02
    86 -.73308134851010E-03
    87 -.77411446849108E-05
    88 0.80305054480557E-04
    89 0.51349239052103E-04
    90 0.32521238959322E-03
    91 -.73508839199876E-03
    92 -.87133142311030E-04
    93 -.31482655414975E-03
    94 0.62734785554555E-03
    95 0.18240908842995E-04
    96 0.23177230296857E-03
    97 0.10077301074786E+00
    98 0.75936794244437E-01
    99 0.77162546363283E-02
   100 -.13821116649073E-01
   101 0.11973847615837E-01
   102 0.17400281553340E-02
 Sym=     3a   
 Ene= -.94680609868166E+00
 Spin= Beta
 Occup= 1.000000
     1 -.68574787819117E-02
     2 -.14538863269309E-01
     3 0.20218168149794E-01
     4 0.26524986667145E-01
     5 -.59241244095042E-02
     6 0.89269509505730E-02
     7 0.79234081016673E-02
     8 -.18550030280021E-02
     9 0.95602949898074E-02
    10 0.75482222698185E-02
    11 -.20437800601221E-02
    12 0.21303602887050E-02
    13 -.91482843899258E-03
    14 -.30140597605620E-03
    15 0.20919992096832E-03
    16 0.31197137079142E-03
    17 -.52117129175974E-03
    18 0.99508601471222E-03
    19 -.19100564197934E-03
    20 -.21245754895767E-03
    21 0.10038106641961E-02
    22 0.71870500880358E-03
    23 -.17225156729997E-02
    24 0.19683154237589E-02
    25 -.64161771808481E-03
    26 -.43090467600783E-03
    27 -.13736524356420E-03
    28 -.96506520555890E-04
    29 0.14470161380306E-03
    30 0.47182549595920E-03
    31 0.31491391682334E-03
    32 -.95611360260210E-04
    33 -.28753068254598E-03
    34 -.18543683268237E-03
    35 -.98526226690326E-04
    36 -.13426836388178E-03
    37 0.44742273159085E-01
    38 0.38026477701738E-01
    39 0.74433684932607E-02
    40 0.99175780330018E-02
    41 0.52640418154542E-02
    42 -.19297511683822E-02
    43 0.36742594214225E-02
    44 0.41580328540956E-02
    45 0.29369845677264E-02
    46 0.71507935763908E-03
    47 0.25881654012802E-03
    48 0.17067935874185E-03
    49 0.36770674918460E-02
    50 0.42708851794075E-02
    51 0.27723447737151E-02
    52 0.59456239803810E-03
    53 0.24477030386071E-03
    54 -.45933234660235E-03
    55 0.38320061435421E-02
    56 0.28680071591803E-02
    57 0.10119516828039E-02
    58 0.21531554693855E-03
    59 0.40767381094911E-03
    60 -.52541293813038E-04
    61 -.98069703563958E-01
    62 -.23040382840094E+00
    63 0.33670353837895E+00
    64 0.44673110762820E+00
    65 0.18197194703610E+00
    66 0.44193915024440E-01
    67 -.66134671882329E-01
    68 -.43039697220299E-02
    69 0.30638721340926E-01
    70 -.59002553603548E-01
    71 -.22341393833053E-02
    72 0.33445072196526E-02
    73 -.11319505207689E-01
    74 -.54845238144498E-04
    75 0.63992310063530E-03
    76 0.28675324595448E-03
    77 -.92667634658978E-03
    78 -.34572284267369E-02
    79 -.12274310305058E-03
    80 0.51526831737717E-03
    81 0.20643714531087E-02
    82 0.21543501644826E-02
    83 -.42187216175912E-02
    84 -.50837260665989E-02
    85 -.10074730484409E-02
    86 0.50364849135089E-03
    87 -.21209172700005E-03
    88 0.29996253199874E-03
    89 0.61643877198522E-04
    90 0.60258654704074E-03
    91 -.92191113192901E-03
    92 -.29255028523439E-04
    93 -.31803563561828E-03
    94 0.51946916457772E-03
    95 -.53448911364087E-04
    96 0.23156168418383E-03
    97 0.10828611531622E+00
    98 0.86355452565800E-01
    99 0.10773752594432E-01
   100 -.14227581293764E-01
   101 0.12325985648977E-01
   102 0.17925169041571E-02
 Sym=     4a   
 Ene= -.71895604603101E+00
 Spin= Alpha
 Occup= 1.000000
     1 -.95735534572792E-01
     2 -.20327385459578E+00
     3 0.32406841485653E+00
     4 0.35311199452259E+00
     5 0.92262644609971E-01
     6 0.27306333412159E-02
     7 0.30500384373584E-02
     8 -.61372665490556E-03
     9 0.12440513469577E-01
    10 0.99928801639428E-02
    11 -.29089467352488E-02
    12 0.27795829605999E-02
    13 0.21168328791877E-03
    14 0.45038519485671E-04
    15 -.54738996451491E-04
    16 0.22913011249618E-03
    17 -.17439111604469E-03
    18 0.42656914889880E-03
    19 -.17778548749966E-04
    20 -.97284213491399E-04
    21 0.14231477782666E-02
    22 0.13155214104258E-02
    23 -.27386691886924E-02
    24 0.31854575866930E-02
    25 -.10012634739054E-02
    26 -.66941401596534E-03
    27 -.37423068004871E-04
    28 -.69523357068818E-03
    29 0.67247404587885E-03
    30 0.14801340815866E-02
    31 0.53023568286033E-03
    32 -.63525078604109E-03
    33 -.14299257671953E-02
    34 0.40251803171888E-03
    35 -.26696782177256E-03
    36 -.73351206488383E-04
    37 0.72257837845060E-01
    38 0.66864969482592E-01
    39 -.15885091345512E-02
    40 -.90782087962874E-02
    41 -.90678516929807E-02
    42 0.18579158814849E-02
    43 0.84282240338166E-01
    44 0.90573106415968E-01
    45 0.11580686015055E-01
    46 0.87300480383603E-02
    47 -.21683973581990E-02
    48 0.92320945257429E-02
    49 0.84290974698332E-01
    50 0.90730488614461E-01
    51 0.10760120019649E-01
    52 0.46141668640539E-02
    53 -.24941831496974E-02
    54 -.11891905495640E-01
    55 0.84429113541988E-01
    56 0.88194543366904E-01
    57 0.11807147255418E-01
    58 -.55754485911292E-02
    59 0.10950660804542E-01
    60 0.10025736224774E-02
    61 0.11232691213400E-01
    62 0.26779873967521E-01
    63 -.42989083194846E-01
    64 -.53199573248776E-01
    65 -.23671925956904E-01
    66 -.46990648360307E-01
    67 -.98515949986957E-02
    68 0.83658139564175E-02
    69 -.41090448482183E-01
    70 -.97970550159862E-02
    71 0.73618809045808E-02
    72 -.14939752479191E-01
    73 -.64519107455085E-02
    74 0.28019533032760E-02
    75 -.16915773105353E-03
    76 -.61526858710502E-04
    77 0.23068458976403E-03
    78 0.63747681538025E-03
    79 0.49665985280818E-04
    80 -.88160114714197E-04
    81 0.95104158017504E-04
    82 0.55652209241546E-03
    83 -.65162625043297E-03
    84 0.40648458620808E-02
    85 -.36315916579185E-03
    86 -.75949300147582E-03
    87 -.52837306492542E-04
    88 0.79077200819440E-04
    89 -.15286090582912E-03
    90 -.27682203753318E-03
    91 -.20475088897202E-03
    92 0.15380407909533E-03
    93 0.34771072297237E-03
    94 0.98657691070415E-04
    95 0.51280346826328E-04
    96 0.10121060003419E-03
    97 -.20318299340389E-01
    98 -.18823377955987E-01
    99 -.34014525694983E-02
   100 0.60248764454144E-03
   101 -.30947840197956E-02
   102 0.50318334453769E-04
 Sym=     4a   
 Ene= -.69779155171968E+00
 Spin= Beta
 Occup= 1.000000
     1 -.94148291153564E-01
     2 -.19910044705112E+00
     3 0.31490818458969E+00
     4 0.33406383311462E+00
     5 0.98757233327189E-01
     6 -.11824379987316E-01
     7 -.10904313909097E-01
     8 0.24221402871157E-02
     9 -.24393223433808E-02
    10 -.48055894996749E-02
    11 0.31949854446814E-03
    12 0.29743600498346E-02
    13 -.24950527550078E-03
    14 -.40682427014811E-04
    15 -.12768604257280E-02
    16 -.44244871874438E-03
    17 0.17193091444724E-02
    18 -.29798013942558E-02
    19 0.76275905473718E-03
    20 0.61244773354925E-03
    21 -.22878739801068E-03
    22 0.63163712993926E-04
    23 0.16562368501676E-03
    24 -.21601830540166E-02
    25 0.12968558196490E-03
    26 0.45765721448766E-03
    27 0.48490082932515E-05
    28 -.70837608289247E-03
    29 0.65525612949537E-03
    30 0.13902501858429E-02
    31 0.46955808165913E-03
    32 -.63056374047955E-03
    33 -.13967558131432E-02
    34 0.48082816333043E-03
    35 -.24855460845548E-03
    36 -.38443778929429E-04
    37 0.67119287667218E-01
    38 0.75097411832341E-01
    39 -.17249240035596E-02
    40 -.69939286851938E-02
    41 -.77406885122208E-02
    42 0.14568849558815E-02
    43 0.88383598452205E-01
    44 0.96879517306201E-01
    45 0.13638168204520E-01
    46 0.91867490639099E-02
    47 -.21008112427709E-02
    48 0.95159230804210E-02
    49 0.88395940263612E-01
    50 0.96916135449243E-01
    51 0.12927381723769E-01
    52 0.49118779535689E-02
    53 -.24368267463753E-02
    54 -.12301896737326E-01
    55 0.88942121178985E-01
    56 0.94591962196200E-01
    57 0.13880804046016E-01
    58 -.58081244044234E-02
    59 0.11322398691021E-01
    60 0.10478704465139E-02
    61 0.11315325203230E-01
    62 0.26847953568687E-01
    63 -.41869620263351E-01
    64 -.54806224457337E-01
    65 -.25504363944280E-01
    66 -.40338382796588E-01
    67 -.24725741885384E-02
    68 0.68904576385459E-02
    69 -.34030907273179E-01
    70 -.28902915052380E-02
    71 0.58424497159278E-02
    72 -.12105229744802E-01
    73 -.44615108758850E-02
    74 0.22237027828215E-02
    75 -.37443671899745E-04
    76 -.37424725598278E-05
    77 0.41186144459573E-04
    78 0.10330693391033E-02
    79 -.35222923730908E-04
    80 -.16988885453787E-03
    81 0.16832424505832E-03
    82 0.50467527741675E-03
    83 -.67299952247506E-03
    84 0.39401636105153E-02
    85 -.37329487664233E-03
    86 -.73500336765622E-03
    87 -.86991843860776E-05
    88 -.11436303430501E-04
    89 -.94136738540317E-04
    90 -.21690513344900E-03
    91 -.60937927722433E-05
    92 0.88044451373864E-04
    93 0.22857631403064E-03
    94 0.21437203901392E-04
    95 0.38253236559900E-04
    96 0.34180197871187E-04
    97 -.21866741464300E-01
    98 -.21416559225254E-01
    99 -.45723388587765E-02
   100 0.86815552384408E-03
   101 -.32118413738369E-02
   102 0.11417964075429E-04
 Sym=     5a   
 Ene= -.49337128160088E+00
 Spin= Alpha
 Occup= 1.000000
     1 -.14849758353502E-01
     2 -.31317302458598E-01
     3 0.53466362390384E-01
     4 0.46650031747420E-01
     5 0.43850977897589E-01
     6 -.97025915508950E-01
     7 -.12317158401802E+00
     8 0.21772250670857E-01
     9 -.78300858034978E-01
    10 -.95288198762935E-01
    11 0.17730549961500E-01
    12 -.28652306727030E-01
    13 -.34381820035610E-01
    14 0.59486962264414E-02
    15 -.14220745005992E-02
    16 -.10805941841147E-02
    17 0.25026686847139E-02
    18 -.55059608993094E-02
    19 0.99139182217050E-03
    20 0.11655922266924E-02
    21 -.11742523008787E-02
    22 -.22792133824243E-02
    23 0.34534656833031E-02
    24 -.54628986917724E-02
    25 0.11647281732116E-02
    26 0.12266896914036E-02
    27 0.23300131570826E-03
    28 0.81659671808171E-04
    29 -.82465057095710E-04
    30 -.45135284772706E-03
    31 -.57952536572228E-03
    32 0.89117119423698E-05
    33 0.13874877926472E-03
    34 0.46996741941224E-03
    35 0.10172677211828E-03
    36 0.26446095502755E-03
    37 -.12295408449897E+00
    38 -.15238576398629E+00
    39 -.66716700731001E-01
    40 -.56868244736677E-03
    41 -.42010297545877E-02
    42 0.35381423149623E-03
    43 0.33303439313247E-01
    44 0.41654897145433E-01
    45 0.87153225959132E-02
    46 -.14606223341451E-03
    47 -.53433962676599E-02
    48 0.46894177737906E-02
    49 0.34257301016216E-01
    50 0.42513417673007E-01
    51 0.99417149496898E-02
    52 -.18242600759774E-02
    53 -.54836933499753E-02
    54 -.41681370163758E-02
    55 0.50249704785770E-01
    56 0.66915812532080E-01
    57 0.18073751196994E-01
    58 -.71965387853236E-02
    59 0.34350561577645E-02
    60 0.14463741771506E-02
    61 0.79576040013860E-02
    62 0.18776672386306E-01
    63 -.24978247102785E-01
    64 -.54772841891271E-01
    65 -.55748970799465E-01
    66 0.34110266721569E+00
    67 -.94310043063439E-02
    68 -.56818997559063E-01
    69 0.27974711705693E+00
    70 0.47123839136549E-02
    71 -.47236153606893E-01
    72 0.13020789484064E+00
    73 0.53807116261789E-02
    74 -.22076862834192E-01
    75 0.77868380107437E-03
    76 0.55362539676840E-04
    77 -.83404634075121E-03
    78 -.45868094541015E-02