
                                 *****************
                                 * O   R   C   A *
                                 *****************

                                            #,                                       
                                            ###                                      
                                            ####                                     
                                            #####                                    
                                            ######                                   
                                           ########,                                 
                                     ,,################,,,,,                         
                               ,,#################################,,                 
                          ,,##########################################,,             
                       ,#########################################, ''#####,          
                    ,#############################################,,   '####,        
                  ,##################################################,,,,####,       
                ,###########''''           ''''###############################       
              ,#####''   ,,,,##########,,,,          '''####'''          '####       
            ,##' ,,,,###########################,,,                        '##       
           ' ,,###''''                  '''############,,,                           
         ,,##''                                '''############,,,,        ,,,,,,###''
      ,#''                                            '''#######################'''  
     '                                                          ''''####''''         
             ,#######,   #######,   ,#######,      ##                                
            ,#'     '#,  ##    ##  ,#'     '#,    #''#        ######   ,####,        
            ##       ##  ##   ,#'  ##            #'  '#       #        #'  '#        
            ##       ##  #######   ##           ,######,      #####,   #    #        
            '#,     ,#'  ##    ##  '#,     ,#' ,#      #,         ##   #,  ,#        
             '#######'   ##     ##  '#######'  #'      '#     #####' # '####'        



                  #######################################################
                  #                        -***-                        #
                  #          Department of theory and spectroscopy      #
                  #    Directorship and core code : Frank Neese         #
                  #        Max Planck Institute fuer Kohlenforschung    #
                  #                Kaiser Wilhelm Platz 1               #
                  #                 D-45470 Muelheim/Ruhr               #
                  #                      Germany                        #
                  #                                                     #
                  #                  All rights reserved                #
                  #                        -***-                        #
                  #######################################################


                         Program Version 5.0.2 -  RELEASE  -


 With contributions from (in alphabetic order):
   Daniel Aravena         : Magnetic Suceptibility
   Michael Atanasov       : Ab Initio Ligand Field Theory (pilot matlab implementation)
   Alexander A. Auer      : GIAO ZORA, VPT2 properties, NMR spectrum
   Ute Becker             : Parallelization
   Giovanni Bistoni       : ED, misc. LED, open-shell LED, HFLD
   Martin Brehm           : Molecular dynamics
   Dmytro Bykov           : SCF Hessian
   Vijay G. Chilkuri      : MRCI spin determinant printing, contributions to CSF-ICE
   Dipayan Datta          : RHF DLPNO-CCSD density
   Achintya Kumar Dutta   : EOM-CC, STEOM-CC
   Dmitry Ganyushin       : Spin-Orbit,Spin-Spin,Magnetic field MRCI
   Miquel Garcia          : C-PCM and meta-GGA Hessian, CC/C-PCM, Gaussian charge scheme
   Yang Guo               : DLPNO-NEVPT2, F12-NEVPT2, CIM, IAO-localization
   Andreas Hansen         : Spin unrestricted coupled pair/coupled cluster methods
   Benjamin Helmich-Paris : MC-RPA, TRAH-SCF, COSX integrals
   Lee Huntington         : MR-EOM, pCC
   Robert Izsak           : Overlap fitted RIJCOSX, COSX-SCS-MP3, EOM
   Marcus Kettner         : VPT2
   Christian Kollmar      : KDIIS, OOCD, Brueckner-CCSD(T), CCSD density, CASPT2, CASPT2-K
   Simone Kossmann        : Meta GGA functionals, TD-DFT gradient, OOMP2, MP2 Hessian
   Martin Krupicka        : Initial AUTO-CI
   Lucas Lang             : DCDCAS
   Marvin Lechner         : AUTO-CI (C++ implementation), FIC-MRCC
   Dagmar Lenk            : GEPOL surface, SMD
   Dimitrios Liakos       : Extrapolation schemes; Compound Job, initial MDCI parallelization
   Dimitrios Manganas     : Further ROCIS development; embedding schemes
   Dimitrios Pantazis     : SARC Basis sets
   Anastasios Papadopoulos: AUTO-CI, single reference methods and gradients
   Taras Petrenko         : DFT Hessian,TD-DFT gradient, ASA, ECA, R-Raman, ABS, FL, XAS/XES, NRVS
   Peter Pinski           : DLPNO-MP2, DLPNO-MP2 Gradient
   Christoph Reimann      : Effective Core Potentials
   Marius Retegan         : Local ZFS, SOC
   Christoph Riplinger    : Optimizer, TS searches, QM/MM, DLPNO-CCSD(T), (RO)-DLPNO pert. Triples
   Tobias Risthaus        : Range-separated hybrids, TD-DFT gradient, RPA, STAB
   Michael Roemelt        : Original ROCIS implementation
   Masaaki Saitow         : Open-shell DLPNO-CCSD energy and density
   Barbara Sandhoefer     : DKH picture change effects
   Avijit Sen             : IP-ROCIS
   Kantharuban Sivalingam : CASSCF convergence, NEVPT2, FIC-MRCI
   Bernardo de Souza      : ESD, SOC TD-DFT
   Georgi Stoychev        : AutoAux, RI-MP2 NMR, DLPNO-MP2 response
   Willem Van den Heuvel  : Paramagnetic NMR
   Boris Wezisla          : Elementary symmetry handling
   Frank Wennmohs         : Technical directorship


 We gratefully acknowledge several colleagues who have allowed us to
 interface, adapt or use parts of their codes:
   Stefan Grimme, W. Hujo, H. Kruse, P. Pracht,  : VdW corrections, initial TS optimization,
                  C. Bannwarth, S. Ehlert          DFT functionals, gCP, sTDA/sTD-DF
   Ed Valeev, F. Pavosevic, A. Kumar             : LibInt (2-el integral package), F12 methods
   Garnet Chan, S. Sharma, J. Yang, R. Olivares  : DMRG
   Ulf Ekstrom                                   : XCFun DFT Library
   Mihaly Kallay                                 : mrcc  (arbitrary order and MRCC methods)
   Jiri Pittner, Ondrej Demel                    : Mk-CCSD
   Frank Weinhold                                : gennbo (NPA and NBO analysis)
   Christopher J. Cramer and Donald G. Truhlar   : smd solvation model
   Lars Goerigk                                  : TD-DFT with DH, B97 family of functionals
   V. Asgeirsson, H. Jonsson                     : NEB implementation
   FAccTs GmbH                                   : IRC, NEB, NEB-TS, DLPNO-Multilevel, CI-OPT
                                                   MM, QMMM, 2- and 3-layer-ONIOM, Crystal-QMMM,
                                                   LR-CPCM, SF, NACMEs, symmetry and pop. for TD-DFT,
                                                   nearIR, NL-DFT gradient (VV10), updates on ESD,
                                                   ML-optimized integration grids
   S Lehtola, MJT Oliveira, MAL Marques          : LibXC Library
   Liviu Ungur et al                             : ANISO software


 Your calculation uses the libint2 library for the computation of 2-el integrals
 For citations please refer to: http://libint.valeyev.net

 Your ORCA version has been built with support for libXC version: 5.1.0
 For citations please refer to: https://tddft.org/programs/libxc/

 This ORCA versions uses:
   CBLAS   interface :  Fast vector & matrix operations
   LAPACKE interface :  Fast linear algebra routines
   SCALAPACK package :  Parallel linear algebra routines
   Shared memory     :  Shared parallel matrices
   BLAS/LAPACK       :  OpenBLAS 0.3.15  USE64BITINT DYNAMIC_ARCH NO_AFFINITY Haswell SINGLE_THREADED
        Core in use  :  Haswell
   Copyright (c) 2011-2014, The OpenBLAS Project




***************************************
The coordinates will be read from file: I.xyz
***************************************



Information: The global flag for chemical shieldings has been found
             ==>> will calculate the chemical shieldings for all atoms in the system

================================================================================

----- Orbital basis set information -----
Your calculation utilizes the basis: pcSseg-2
   F. Jensen, J. Chem. Theory Comput. 11, 132 (2015).

----- AuxJ basis set information -----
Your calculation utilizes the auxiliary basis: def2/J
   F. Weigend, Phys. Chem. Chem. Phys. 8, 1057 (2006).

================================================================================
                                        WARNINGS
                       Please study these warnings very carefully!
================================================================================


INFO   : the flag for use of the SHARK integral package has been found!

================================================================================
                                       INPUT FILE
================================================================================
NAME = I.inp
|  1> !PBE RI pcSseg-2 def2/J NMR
|  2> 
|  3> *xyzfile 0 1 I.xyz
|  4> 
|  5> 
|  6> 
|  7>                          ****END OF INPUT****
================================================================================

                       ****************************
                       * Single Point Calculation *
                       ****************************

---------------------------------
CARTESIAN COORDINATES (ANGSTROEM)
---------------------------------
  C     -3.026326   -2.689204   -3.520322
  C     -2.562967   -1.379984   -3.549555
  C     -1.952303   -1.535868   -1.243803
  C     -2.322434   -2.868455   -1.220896
  C     -2.956318   -3.403337   -2.331593
  C     -1.965279   -0.820261   -2.431276
  C     -0.857626    0.171410   -2.603322
  C     -1.589695   -3.769214   -0.270316
  C     -3.023797   -3.469418   -4.796553
  C     -1.537486   -3.736538   -5.157035
  C     -0.651323   -4.251511   -4.001366
  C     -0.073552   -3.559715   -0.472954
  C      0.656709   -3.865575   -1.807108
  C      0.454374   -0.656665   -2.604398
  C      0.514440   -1.819263   -3.625947
  H     -2.480931   -0.870476   -4.504812
  H     -1.402729   -1.125230   -0.403601
  H     -3.204608   -4.459435   -2.338637
  H     -0.816386    0.910410   -1.799279
  H     -0.951876    0.721341   -3.543131
  H     -1.865318   -4.813172   -0.439869
  H     -1.815573   -3.551608    0.777675
  H     -3.505815   -2.938203   -5.620148
  H     -1.121157   -2.825872   -5.592487
  H     -1.517679   -4.470890   -5.966339
  H     -0.072264   -5.085850   -4.403861
  H     -1.290864   -4.717268   -3.253794
  H      0.437925   -4.192750    0.259909
  H      0.162740   -2.541006   -0.162518
  H      0.664088   -4.955912   -1.916322
  H      1.697467   -3.615565   -1.575782
  H      0.643602   -1.019035   -1.593220
  H      1.277642    0.028890   -2.823285
  H      1.481924   -1.714783   -4.119686
  H     -0.202303   -1.604228   -4.418378
  C      0.415365   -3.348875   -3.263726
  H     -3.549160   -4.419680   -4.675229
  H      1.340464   -3.714634   -3.714005

----------------------------
CARTESIAN COORDINATES (A.U.)
----------------------------
  NO LB      ZA    FRAG     MASS         X           Y           Z
   0 C     6.0000    0    12.011   -5.718928   -5.081858   -6.652445
   1 C     6.0000    0    12.011   -4.843305   -2.607792   -6.707686
   2 C     6.0000    0    12.011   -3.689319   -2.902371   -2.350447
   3 C     6.0000    0    12.011   -4.388764   -5.420595   -2.307160
   4 C     6.0000    0    12.011   -5.586632   -6.431375   -4.406072
   5 C     6.0000    0    12.011   -3.713838   -1.550069   -4.594445
   6 C     6.0000    0    12.011   -1.620679    0.323919   -4.919565
   7 C     6.0000    0    12.011   -3.004089   -7.122782   -0.510824
   8 C     6.0000    0    12.011   -5.714149   -6.556250   -9.064171
   9 C     6.0000    0    12.011   -2.905428   -7.061033   -9.745384
  10 C     6.0000    0    12.011   -1.230822   -8.034192   -7.561486
  11 C     6.0000    0    12.011   -0.138994   -6.726886   -0.893753
  12 C     6.0000    0    12.011    1.241000   -7.304878   -3.414940
  13 C     6.0000    0    12.011    0.858642   -1.240918   -4.921599
  14 C     6.0000    0    12.011    0.972150   -3.437908   -6.852046
  15 H     1.0000    0     1.008   -4.688280   -1.644961   -8.512862
  16 H     1.0000    0     1.008   -2.650774   -2.126377   -0.762695
  17 H     1.0000    0     1.008   -6.055831   -8.427112   -4.419383
  18 H     1.0000    0     1.008   -1.542745    1.720425   -3.400145
  19 H     1.0000    0     1.008   -1.798784    1.363137   -6.695548
  20 H     1.0000    0     1.008   -3.524941   -9.095576   -0.831232
  21 H     1.0000    0     1.008   -3.430935   -6.711566    1.469592
  22 H     1.0000    0     1.008   -6.625031   -5.552399  -10.620540
  23 H     1.0000    0     1.008   -2.118679   -5.340124  -10.568270
  24 H     1.0000    0     1.008   -2.867998   -8.448757  -11.274747
  25 H     1.0000    0     1.008   -0.136559   -9.610864   -8.322091
  26 H     1.0000    0     1.008   -2.439379   -8.914344   -6.148780
  27 H     1.0000    0     1.008    0.827559   -7.923149    0.491156
  28 H     1.0000    0     1.008    0.307535   -4.801806   -0.307115
  29 H     1.0000    0     1.008    1.254944   -9.365316   -3.621324
  30 H     1.0000    0     1.008    3.207748   -6.832429   -2.977796
  31 H     1.0000    0     1.008    1.216231   -1.925697   -3.010749
  32 H     1.0000    0     1.008    2.414393    0.054594   -5.335235
  33 H     1.0000    0     1.008    2.800431   -3.240470   -7.785078
  34 H     1.0000    0     1.008   -0.382298   -3.031552   -8.349525
  35 C     6.0000    0    12.011    0.784926   -6.328456   -6.167548
  36 H     1.0000    0     1.008   -6.706941   -8.351985   -8.834903
  37 H     1.0000    0     1.008    2.533110   -7.019641   -7.018453

--------------------------------
INTERNAL COORDINATES (ANGSTROEM)
--------------------------------
 C      0   0   0     0.000000000000     0.00000000     0.00000000
 C      1   0   0     1.389104704822     0.00000000     0.00000000
 C      2   1   0     2.390334592219    90.19788674     0.00000000
 C      3   2   1     1.383224293517    90.59822649     3.89420251
 C      4   3   2     1.386201567536   118.73953311   352.65804947
 C      2   1   3     1.386026181988   120.49562124     3.16168705
 C      6   2   1     1.496631527083   119.60247971   146.27369514
 C      4   3   2     1.500624857351   117.26539484   150.04961141
 C      1   2   3     1.495829030330   118.23433218   206.72208757
 C      9   1   2     1.552553068405   106.82561261    69.23361590
 C     10   9   1     1.544685569223   115.64887616    46.97467280
 C      8   4   3     1.543904567319   108.35576793   309.79138238
 C     12   8   4     1.551386908751   123.25527163   297.72617097
 C      7   6   2     1.551468938604   105.80044246   269.03701700
 C     14   7   6     1.548806476246   115.71517951    53.88270615
 H      2   1   3     1.085746695447   119.07806822   170.37973687
 H      3   2   1     1.084710027090   148.42179037   165.31773074
 H      5   4   3     1.084915074470   119.04301977   176.99771916
 H      7   6   2     1.092842772556   113.04260533   149.53078881
 H      7   6   2     1.092954147335   111.61832125    28.58927034
 H      8   4   3     1.092960760250   110.60586043   188.02327815
 H      8   4   3     1.093918863872   112.74506660    68.71027318
 H      9   1   2     1.092171856271   112.88872563   309.02526904
 H     10   9   1     1.091907053929   108.30773070   281.74910506
 H     10   9   1     1.092995035126   107.75016979   168.70631024
 H     11  10   9     1.092443415526   106.44271708   134.11706715
 H     11  10   9     1.088487377617   108.62776234    22.95583451
 H     12   8   4     1.095184991740   106.99956263   177.54817274
 H     12   8   4     1.090858105021   107.58290204    65.88608653
 H     13  12   8     1.095817687050   106.56153149   289.80908002
 H     13  12   8     1.095077352800   102.74969241   180.78607148
 H     14   7   6     1.090688062554   108.86870431   288.33189522
 H     14   7   6     1.093465736366   107.58964338   174.74095168
 H     15  14   7     1.091201728136   105.12651900   132.33629871
 H     15  14   7     1.089911850469   107.81515673    22.29043954
 C     13  12   8     1.564276399162   131.53234142    56.21883143
 H      9   1   2     1.092576838300   110.98345761   188.73675445
 H     36  13  12     1.091943240851    98.20016729   168.05473406

---------------------------
INTERNAL COORDINATES (A.U.)
---------------------------
 C      0   0   0     0.000000000000     0.00000000     0.00000000
 C      1   0   0     2.625027463456     0.00000000     0.00000000
 C      2   1   0     4.517077747732    90.19788674     0.00000000
 C      3   2   1     2.613915096534    90.59822649     3.89420251
 C      4   3   2     2.619541329056   118.73953311   352.65804947
 C      2   1   3     2.619209898401   120.49562124     3.16168705
 C      6   2   1     2.828223709579   119.60247971   146.27369514
 C      4   3   2     2.835770010149   117.26539484   150.04961141
 C      1   2   3     2.826707210493   118.23433218   206.72208757
 C      9   1   2     2.933900107664   106.82561261    69.23361590
 C     10   9   1     2.919032688852   115.64887616    46.97467280
 C      8   4   3     2.917556809143   108.35576793   309.79138238
 C     12   8   4     2.931696385290   123.25527163   297.72617097
 C      7   6   2     2.931851399247   105.80044246   269.03701700
 C     14   7   6     2.926820074548   115.71517951    53.88270615
 H      2   1   3     2.051763905204   119.07806822   170.37973687
 H      3   2   1     2.049804885918   148.42179037   165.31773074
 H      5   4   3     2.050192369311   119.04301977   176.99771916
 H      7   6   2     2.065173547566   113.04260533   149.53078881
 H      7   6   2     2.065384015397   111.61832125    28.58927034
 H      8   4   3     2.065396511995   110.60586043   188.02327815
 H      8   4   3     2.067207065449   112.74506660    68.71027318
 H      9   1   2     2.063905699528   112.88872563   309.02526904
 H     10   9   1     2.063405295623   108.30773070   281.74910506
 H     10   9   1     2.065461282123   107.75016979   168.70631024
 H     11  10   9     2.064418872150   106.44271708   134.11706715
 H     11  10   9     2.056943043927   108.62776234    22.95583451
 H     12   8   4     2.069599700369   106.99956263   177.54817274
 H     12   8   4     2.061423069458   107.58290204    65.88608653
 H     13  12   8     2.070795321231   106.56153149   289.80908002
 H     13  12   8     2.069396292251   102.74969241   180.78607148
 H     14   7   6     2.061101735764   108.86870431   288.33189522
 H     14   7   6     2.066350778558   107.58964338   174.74095168
 H     15  14   7     2.062072423039   105.12651900   132.33629871
 H     15  14   7     2.059634907502   107.81515673    22.29043954
 C     13  12   8     2.956053992173   131.53234142    56.21883143
 H      9   1   2     2.064671004653   110.98345761   188.73675445
 H     36  13  12     2.063473678995    98.20016729   168.05473406

---------------------
BASIS SET INFORMATION
---------------------
There are 2 groups of distinct atoms

 Group   1 Type C   : 11s7p2d1f contracted to 4s5p2d1f pattern {7211/31111/11/1}
 Group   2 Type H   : 6s3p1d contracted to 3s2p1d pattern {411/21/1}

Atom   0C    basis set group =>   1
Atom   1C    basis set group =>   1
Atom   2C    basis set group =>   1
Atom   3C    basis set group =>   1
Atom   4C    basis set group =>   1
Atom   5C    basis set group =>   1
Atom   6C    basis set group =>   1
Atom   7C    basis set group =>   1
Atom   8C    basis set group =>   1
Atom   9C    basis set group =>   1
Atom  10C    basis set group =>   1
Atom  11C    basis set group =>   1
Atom  12C    basis set group =>   1
Atom  13C    basis set group =>   1
Atom  14C    basis set group =>   1
Atom  15H    basis set group =>   2
Atom  16H    basis set group =>   2
Atom  17H    basis set group =>   2
Atom  18H    basis set group =>   2
Atom  19H    basis set group =>   2
Atom  20H    basis set group =>   2
Atom  21H    basis set group =>   2
Atom  22H    basis set group =>   2
Atom  23H    basis set group =>   2
Atom  24H    basis set group =>   2
Atom  25H    basis set group =>   2
Atom  26H    basis set group =>   2
Atom  27H    basis set group =>   2
Atom  28H    basis set group =>   2
Atom  29H    basis set group =>   2
Atom  30H    basis set group =>   2
Atom  31H    basis set group =>   2
Atom  32H    basis set group =>   2
Atom  33H    basis set group =>   2
Atom  34H    basis set group =>   2
Atom  35C    basis set group =>   1
Atom  36H    basis set group =>   2
Atom  37H    basis set group =>   2
---------------------------------
AUXILIARY/J BASIS SET INFORMATION
---------------------------------
There are 2 groups of distinct atoms

 Group   1 Type C   : 12s5p4d2f1g contracted to 6s4p3d1f1g pattern {711111/2111/211/2/1}
 Group   2 Type H   : 5s2p1d contracted to 3s1p1d pattern {311/2/1}

Atom   0C    basis set group =>   1
Atom   1C    basis set group =>   1
Atom   2C    basis set group =>   1
Atom   3C    basis set group =>   1
Atom   4C    basis set group =>   1
Atom   5C    basis set group =>   1
Atom   6C    basis set group =>   1
Atom   7C    basis set group =>   1
Atom   8C    basis set group =>   1
Atom   9C    basis set group =>   1
Atom  10C    basis set group =>   1
Atom  11C    basis set group =>   1
Atom  12C    basis set group =>   1
Atom  13C    basis set group =>   1
Atom  14C    basis set group =>   1
Atom  15H    basis set group =>   2
Atom  16H    basis set group =>   2
Atom  17H    basis set group =>   2
Atom  18H    basis set group =>   2
Atom  19H    basis set group =>   2
Atom  20H    basis set group =>   2
Atom  21H    basis set group =>   2
Atom  22H    basis set group =>   2
Atom  23H    basis set group =>   2
Atom  24H    basis set group =>   2
Atom  25H    basis set group =>   2
Atom  26H    basis set group =>   2
Atom  27H    basis set group =>   2
Atom  28H    basis set group =>   2
Atom  29H    basis set group =>   2
Atom  30H    basis set group =>   2
Atom  31H    basis set group =>   2
Atom  32H    basis set group =>   2
Atom  33H    basis set group =>   2
Atom  34H    basis set group =>   2
Atom  35C    basis set group =>   1
Atom  36H    basis set group =>   2
Atom  37H    basis set group =>   2
------------------------------------------------------------------------------
                           ORCA GTO INTEGRAL CALCULATION
                           -- RI-GTO INTEGRALS CHOSEN --
------------------------------------------------------------------------------
------------------------------------------------------------------------------
                   ___                                                        
                  /   \      - P O W E R E D   B Y -                         
                 /     \                                                     
                 |  |  |   _    _      __       _____    __    __             
                 |  |  |  | |  | |    /  \     |  _  \  |  |  /  |          
                  \  \/   | |  | |   /    \    | | | |  |  | /  /          
                 / \  \   | |__| |  /  /\  \   | |_| |  |  |/  /          
                |  |  |   |  __  | /  /__\  \  |    /   |      \           
                |  |  |   | |  | | |   __   |  |    \   |  |\   \          
                \     /   | |  | | |  |  |  |  | |\  \  |  | \   \       
                 \___/    |_|  |_| |__|  |__|  |_| \__\ |__|  \__/        
                                                                              
                      - O R C A' S   B I G   F R I E N D -                    
                                      &                                       
                       - I N T E G R A L  F E E D E R -                       
                                                                              
 v1 FN, 2020, v2 2021                                                         
------------------------------------------------------------------------------


Reading SHARK input file I.SHARKINP.tmp ... ok
----------------------
SHARK INTEGRAL PACKAGE
----------------------

Number of atoms                             ...     38
Number of basis functions                   ...    884
Number of shells                            ...    324
Maximum angular momentum                    ...      3
Integral batch strategy                     ... SHARK/LIBINT Hybrid
RI-J (if used) integral strategy            ... SPLIT-RIJ (Revised 2003 algorithm where possible)
Printlevel                                  ...      1
Contraction scheme used                     ... SEGMENTED contraction
Coulomb Range Separation                    ... NOT USED
Exchange Range Separation                   ... NOT USED
Finite Nucleus Model                        ... NOT USED
Auxiliary Coulomb fitting basis             ... AVAILABLE
   # of basis functions in Aux-J            ...   1026
   # of shells in Aux-J                     ...    350
   Maximum angular momentum in Aux-J        ...      4
Auxiliary J/K fitting basis                 ... NOT available
Auxiliary Correlation fitting basis         ... NOT available
Auxiliary 'external' fitting basis          ... NOT available
Integral threshold                          ...     1.000000e-10
Primitive cut-off                           ...     1.000000e-11
Primitive pair pre-selection threshold      ...     1.000000e-11

Calculating pre-screening integrals         ... done (  0.2 sec) Dimension = 324
Organizing shell pair data                  ... done (  0.4 sec)
Shell pair information
Total number of shell pairs                 ...     52650
Shell pairs after pre-screening             ...     43333
Total number of primitive shell pairs       ...    155400
Primitive shell pairs kept                  ...     86248
          la=0 lb=0:   7852 shell pairs
          la=1 lb=0:  13791 shell pairs
          la=1 lb=1:   5761 shell pairs
          la=2 lb=0:   5959 shell pairs
          la=2 lb=1:   4803 shell pairs
          la=2 lb=2:   1041 shell pairs
          la=3 lb=0:   1815 shell pairs
          la=3 lb=1:   1528 shell pairs
          la=3 lb=2:    658 shell pairs
          la=3 lb=3:    125 shell pairs

Calculating one electron integrals          ... done (  0.3 sec)
Calculating RI/J V-Matrix + Cholesky decomp.... done (  0.0 sec)
Calculating Nuclear repulsion               ... done (  0.0 sec) ENN=   1196.919417137313 Eh

SHARK setup successfully completed in   1.4 seconds

Maximum memory used throughout the entire GTOINT-calculation: 517.6 MB
-------------------------------------------------------------------------------
                                 ORCA SCF
-------------------------------------------------------------------------------

------------
SCF SETTINGS
------------
Hamiltonian:
 Density Functional     Method          .... DFT(GTOs)
 Exchange Functional    Exchange        .... PBE
   PBE kappa parameter   XKappa         ....  0.804000
   PBE mue parameter    XMuePBE         ....  0.219520
 Correlation Functional Correlation     .... PBE
   PBE beta parameter  CBetaPBE         ....  0.066725
 LDA part of GGA corr.  LDAOpt          .... PW91-LDA
 Gradients option       PostSCFGGA      .... off
   Density functional embedding theory  .... OFF
   NL short-range parameter             ....  6.400000
 RI-approximation to the Coulomb term is turned on
   Number of AuxJ basis functions       .... 1026


General Settings:
 Integral files         IntName         .... I
 Hartree-Fock type      HFTyp           .... RHF
 Total Charge           Charge          ....    0
 Multiplicity           Mult            ....    1
 Number of Electrons    NEL             ....  118
 Basis Dimension        Dim             ....  884
 Nuclear Repulsion      ENuc            ....   1196.9194171373 Eh

Convergence Acceleration:
 DIIS                   CNVDIIS         .... on
   Start iteration      DIISMaxIt       ....    12
   Startup error        DIISStart       ....  0.200000
   # of expansion vecs  DIISMaxEq       ....     5
   Bias factor          DIISBfac        ....   1.050
   Max. coefficient     DIISMaxC        ....  10.000
 Trust-Rad. Augm. Hess. CNVTRAH         .... auto
   Auto Start mean grad. ratio tolernc. ....  1.125000
   Auto Start start iteration           ....    20
   Auto Start num. interpolation iter.  ....    10
   Max. Number of Micro iterations      ....    16
   Max. Number of Macro iterations      .... Maxiter - #DIIS iter
   Number of Davidson start vectors     ....     2
   Converg. threshold I  (grad. norm)   ....   5.000e-05
   Converg. threshold II (energy diff.) ....   1.000e-06
   Grad. Scal. Fac. for Micro threshold ....   0.100
   Minimum threshold for Micro iter.    ....   0.010
   NR start threshold (gradient norm)   ....   0.001
   Initial trust radius                 ....   0.400
   Minimum AH scaling param. (alpha)    ....   1.000
   Maximum AH scaling param. (alpha)    .... 1000.000
   Orbital update algorithm             .... Taylor
   White noise on init. David. guess    .... on
   Maximum white noise                  ....   0.010
   Quad. conv. algorithm                .... NR
 SOSCF                  CNVSOSCF        .... on
   Start iteration      SOSCFMaxIt      ....   150
   Startup grad/error   SOSCFStart      ....  0.003300
 Level Shifting         CNVShift        .... on
   Level shift para.    LevelShift      ....    0.2500
   Turn off err/grad.   ShiftErr        ....    0.0010
 Zerner damping         CNVZerner       .... off
 Static damping         CNVDamp         .... on
   Fraction old density DampFac         ....    0.7000
   Max. Damping (<1)    DampMax         ....    0.9800
   Min. Damping (>=0)   DampMin         ....    0.0000
   Turn off err/grad.   DampErr         ....    0.1000
 Fernandez-Rico         CNVRico         .... off

SCF Procedure:
 Maximum # iterations   MaxIter         ....   125
 SCF integral mode      SCFMode         .... Direct
   Integral package                     .... SHARK and LIBINT hybrid scheme
 Reset frequency        DirectResetFreq ....    20
 Integral Threshold     Thresh          ....  1.000e-10 Eh
 Primitive CutOff       TCut            ....  1.000e-11 Eh

Convergence Tolerance:
 Convergence Check Mode ConvCheckMode   .... Total+1el-Energy
 Convergence forced     ConvForced      .... 0
 Energy Change          TolE            ....  1.000e-06 Eh
 1-El. energy change                    ....  1.000e-03 Eh
 Orbital Gradient       TolG            ....  5.000e-05
 Orbital Rotation angle TolX            ....  5.000e-05
 DIIS Error             TolErr          ....  1.000e-06


Diagonalization of the overlap matrix:
Smallest eigenvalue                        ... 1.488e-05
Time for diagonalization                   ...    0.116 sec
Threshold for overlap eigenvalues          ... 1.000e-08
Number of eigenvalues below threshold      ... 0
Time for construction of square roots      ...    0.066 sec
Total time needed                          ...    0.184 sec

Time for model grid setup =    1.206 sec

------------------------------
INITIAL GUESS: MODEL POTENTIAL
------------------------------
Loading Hartree-Fock densities                     ... done
Calculating cut-offs                               ... done
Initializing the effective Hamiltonian             ... done
Setting up the integral package (SHARK)            ... done
Starting the Coulomb interaction                   ... done (   3.3 sec)
Reading the grid                                   ... done
Mapping shells                                     ... done
Starting the XC term evaluation                    ... done (   2.2 sec)
  promolecular density results
     # of electrons  =    117.984254255
     EX              =    -88.426783395
     EC              =     -3.957604611
     EX+EC           =    -92.384388006
Transforming the Hamiltonian                       ... done (   0.1 sec)
Diagonalizing the Hamiltonian                      ... done (   0.1 sec)
Back transforming the eigenvectors                 ... done (   0.0 sec)
Now organizing SCF variables                       ... done
                      ------------------
                      INITIAL GUESS DONE (   7.0 sec)
                      ------------------
-------------------
DFT GRID GENERATION
-------------------

General Integration Accuracy     IntAcc      ... 4.388
Radial Grid Type                 RadialGrid  ... OptM3 with GC (2021)
Angular Grid (max. ang.)         AngularGrid ... 4 (Lebedev-302)
Angular grid pruning method      GridPruning ... 4 (adaptive)
Weight generation scheme         WeightScheme... Becke
Basis function cutoff            BFCut       ... 1.0000e-10
Integration weight cutoff        WCut        ... 1.0000e-14
Angular grids for H and He will be reduced by one unit
Partially contracted basis set               ... off
Rotationally invariant grid construction     ... off

Total number of grid points                  ...   163549
Total number of batches                      ...     2572
Average number of points per batch           ...       63
Average number of grid points per atom       ...     4304
Time for grid setup =    4.022 sec

--------------
SCF ITERATIONS
--------------
ITER       Energy         Delta-E        Max-DP      RMS-DP      [F,P]     Damp
               ***  Starting incremental Fock matrix formation  ***
  0   -621.8574693423   0.000000000000 0.04093500  0.00059494  0.1386873 0.7000
  1   -622.0570440552  -0.199574712830 0.02628811  0.00038734  0.0647273 0.7000
                               ***Turning on DIIS***
  2   -622.1244177643  -0.067373709135 0.04805465  0.00062357  0.0198924 0.0000
  3   -622.2284738024  -0.104056038128 0.01614576  0.00032209  0.0403186 0.0000
  4   -622.2587301750  -0.030256372563 0.01240581  0.00012400  0.0115616 0.0000
                      *** Initiating the SOSCF procedure ***
                           *** Shutting down DIIS ***
                      *** Re-Reading the Fockian *** 
                      *** Removing any level shift *** 
ITER      Energy       Delta-E        Grad      Rot      Max-DP    RMS-DP
  5   -622.26095866  -0.0022284854  0.000403  0.000403  0.004146  0.000048
               *** Restarting incremental Fock matrix formation ***
  6   -622.26106120  -0.0001025351  0.000272  0.001633  0.003971  0.000039
  7   -622.26105515   0.0000060498  0.000634  0.001428  0.000820  0.000010
  8   -622.26107418  -0.0000190342  0.000216  0.000955  0.000909  0.000009
  9   -622.26107240   0.0000017786  0.000411  0.000828  0.000272  0.000003
 10   -622.26107516  -0.0000027545  0.000094  0.000244  0.000522  0.000005
 11   -622.26107503   0.0000001220  0.000059  0.000101  0.000121  0.000002
                 **** Energy Check signals convergence ****
              ***Rediagonalizing the Fockian in SOSCF/NRSCF***

               *****************************************************
               *                     SUCCESS                       *
               *           SCF CONVERGED AFTER  12 CYCLES          *
               *****************************************************


----------------
TOTAL SCF ENERGY
----------------

Total Energy       :         -622.26107552 Eh          -16932.58470 eV

Components:
Nuclear Repulsion  :         1196.91941714 Eh           32569.83316 eV
Electronic Energy  :        -1819.18049265 Eh          -49502.41786 eV
One Electron Energy:        -3217.61889126 Eh          -87555.86129 eV
Two Electron Energy:         1398.43839861 Eh           38053.44343 eV

Virial components:
Potential Energy   :        -1242.49883082 Eh          -33810.11206 eV
Kinetic Energy     :          620.23775530 Eh           16877.52736 eV
Virial Ratio       :            2.00326217


DFT components:
N(Alpha)           :       58.999693983934 electrons
N(Beta)            :       58.999693983934 electrons
N(Total)           :      117.999387967868 electrons
E(X)               :      -90.525356542756 Eh       
E(C)               :       -3.919079372923 Eh       
E(XC)              :      -94.444435915680 Eh       
DFET-embed. en.    :        0.000000000000 Eh       

---------------
SCF CONVERGENCE
---------------

  Last Energy change         ...   -4.8282e-07  Tolerance :   1.0000e-06
  Last MAX-Density change    ...    1.1358e-04  Tolerance :   1.0000e-05
  Last RMS-Density change    ...    1.0649e-06  Tolerance :   1.0000e-06
  Last Orbital Gradient      ...    6.2034e-06  Tolerance :   5.0000e-05
  Last Orbital Rotation      ...    1.7545e-05  Tolerance :   5.0000e-05

             **** THE GBW FILE WAS UPDATED (I.gbw) ****
             **** DENSITY I.scfp WAS UPDATED ****
             **** ENERGY FILE WAS UPDATED (I.en.tmp) ****
             **** THE GBW FILE WAS UPDATED (I.gbw) ****
             **** DENSITY I.scfp WAS UPDATED ****
----------------
ORBITAL ENERGIES
----------------

  NO   OCC          E(Eh)            E(eV) 
   0   2.0000      -9.890367      -269.1306 
   1   2.0000      -9.882343      -268.9122 
   2   2.0000      -9.882168      -268.9075 
   3   2.0000      -9.881708      -268.8950 
   4   2.0000      -9.881466      -268.8883 
   5   2.0000      -9.881212      -268.8815 
   6   2.0000      -9.881017      -268.8762 
   7   2.0000      -9.880786      -268.8699 
   8   2.0000      -9.880157      -268.8527 
   9   2.0000      -9.879555      -268.8364 
  10   2.0000      -9.879495      -268.8347 
  11   2.0000      -9.874959      -268.7113 
  12   2.0000      -9.872194      -268.6361 
  13   2.0000      -9.868804      -268.5438 
  14   2.0000      -9.868345      -268.5313 
  15   2.0000      -9.866849      -268.4906 
  16   2.0000      -0.793396       -21.5894 
  17   2.0000      -0.735409       -20.0115 
  18   2.0000      -0.732544       -19.9335 
  19   2.0000      -0.732123       -19.9221 
  20   2.0000      -0.666884       -18.1468 
  21   2.0000      -0.666260       -18.1299 
  22   2.0000      -0.661725       -18.0065 
  23   2.0000      -0.613525       -16.6949 
  24   2.0000      -0.606890       -16.5143 
  25   2.0000      -0.569338       -15.4925 
  26   2.0000      -0.545916       -14.8551 
  27   2.0000      -0.540715       -14.7136 
  28   2.0000      -0.504145       -13.7185 
  29   2.0000      -0.490889       -13.3578 
  30   2.0000      -0.470540       -12.8040 
  31   2.0000      -0.448748       -12.2111 
  32   2.0000      -0.434886       -11.8339 
  33   2.0000      -0.429034       -11.6746 
  34   2.0000      -0.408742       -11.1224 
  35   2.0000      -0.398619       -10.8470 
  36   2.0000      -0.392984       -10.6937 
  37   2.0000      -0.383684       -10.4406 
  38   2.0000      -0.377039       -10.2597 
  39   2.0000      -0.372708       -10.1419 
  40   2.0000      -0.363179        -9.8826 
  41   2.0000      -0.358697        -9.7606 
  42   2.0000      -0.343998        -9.3607 
  43   2.0000      -0.337124        -9.1736 
  44   2.0000      -0.335086        -9.1181 
  45   2.0000      -0.317570        -8.6415 
  46   2.0000      -0.315941        -8.5972 
  47   2.0000      -0.306552        -8.3417 
  48   2.0000      -0.298963        -8.1352 
  49   2.0000      -0.298386        -8.1195 
  50   2.0000      -0.294031        -8.0010 
  51   2.0000      -0.287557        -7.8248 
  52   2.0000      -0.280451        -7.6315 
  53   2.0000      -0.278166        -7.5693 
  54   2.0000      -0.257692        -7.0122 
  55   2.0000      -0.256444        -6.9782 
  56   2.0000      -0.245139        -6.6706 
  57   2.0000      -0.202391        -5.5073 
  58   2.0000      -0.200755        -5.4628 
  59   0.0000      -0.042175        -1.1476 
  60   0.0000      -0.035736        -0.9724 
  61   0.0000      -0.010913        -0.2969 
  62   0.0000       0.008130         0.2212 
  63   0.0000       0.008750         0.2381 
  64   0.0000       0.011048         0.3006 
  65   0.0000       0.024292         0.6610 
  66   0.0000       0.027042         0.7358 
  67   0.0000       0.038592         1.0501 
  68   0.0000       0.042084         1.1452 
  69   0.0000       0.045278         1.2321 
  70   0.0000       0.048892         1.3304 
  71   0.0000       0.060945         1.6584 
  72   0.0000       0.062784         1.7084 
  73   0.0000       0.067330         1.8321 
  74   0.0000       0.070473         1.9177 
  75   0.0000       0.079752         2.1702 
  76   0.0000       0.087081         2.3696 
  77   0.0000       0.089186         2.4269 
  78   0.0000       0.098069         2.6686 
  79   0.0000       0.099522         2.7081 
  80   0.0000       0.105139         2.8610 
  81   0.0000       0.111821         3.0428 
  82   0.0000       0.116584         3.1724 
  83   0.0000       0.123142         3.3509 
  84   0.0000       0.128701         3.5021 
  85   0.0000       0.135439         3.6855 
  86   0.0000       0.140313         3.8181 
  87   0.0000       0.143443         3.9033 
  88   0.0000       0.148405         4.0383 
  89   0.0000       0.154891         4.2148 
  90   0.0000       0.158536         4.3140 
  91   0.0000       0.160924         4.3790 
  92   0.0000       0.168392         4.5822 
  93   0.0000       0.173710         4.7269 
  94   0.0000       0.176287         4.7970 
  95   0.0000       0.184867         5.0305 
  96   0.0000       0.188858         5.1391 
  97   0.0000       0.196918         5.3584 
  98   0.0000       0.200556         5.4574 
  99   0.0000       0.207506         5.6465 
 100   0.0000       0.210286         5.7222 
 101   0.0000       0.217189         5.9100 
 102   0.0000       0.220631         6.0037 
 103   0.0000       0.229743         6.2516 
 104   0.0000       0.234705         6.3866 
 105   0.0000       0.236999         6.4491 
 106   0.0000       0.242479         6.5982 
 107   0.0000       0.248208         6.7541 
 108   0.0000       0.252371         6.8674 
 109   0.0000       0.253981         6.9112 
 110   0.0000       0.255718         6.9584 
 111   0.0000       0.260556         7.0901 
 112   0.0000       0.264419         7.1952 
 113   0.0000       0.267281         7.2731 
 114   0.0000       0.269281         7.3275 
 115   0.0000       0.277195         7.5429 
 116   0.0000       0.278643         7.5823 
 117   0.0000       0.282431         7.6853 
 118   0.0000       0.284982         7.7547 
 119   0.0000       0.288577         7.8526 
 120   0.0000       0.293585         7.9889 
 121   0.0000       0.296573         8.0702 
 122   0.0000       0.300971         8.1898 
 123   0.0000       0.307425         8.3655 
 124   0.0000       0.309789         8.4298 
 125   0.0000       0.318902         8.6778 
 126   0.0000       0.320701         8.7267 
 127   0.0000       0.324952         8.8424 
 128   0.0000       0.329427         8.9642 
 129   0.0000       0.331117         9.0101 
 130   0.0000       0.333753         9.0819 
 131   0.0000       0.342519         9.3204 
 132   0.0000       0.345216         9.3938 
 133   0.0000       0.349709         9.5161 
 134   0.0000       0.349959         9.5229 
 135   0.0000       0.353274         9.6131 
 136   0.0000       0.355257         9.6670 
 137   0.0000       0.357546         9.7293 
 138   0.0000       0.360986         9.8229 
 139   0.0000       0.369078        10.0431 
 140   0.0000       0.372237        10.1291 
 141   0.0000       0.377569        10.2742 
 142   0.0000       0.382860        10.4181 
 143   0.0000       0.385183        10.4814 
 144   0.0000       0.386095        10.5062 
 145   0.0000       0.393525        10.7084 
 146   0.0000       0.396553        10.7908 
 147   0.0000       0.403927        10.9914 
 148   0.0000       0.408457        11.1147 
 149   0.0000       0.409632        11.1467 
 150   0.0000       0.419983        11.4283 
 151   0.0000       0.425304        11.5731 
 152   0.0000       0.428342        11.6558 
 153   0.0000       0.433346        11.7919 
 154   0.0000       0.441194        12.0055 
 155   0.0000       0.451715        12.2918 
 156   0.0000       0.459739        12.5101 
 157   0.0000       0.463619        12.6157 
 158   0.0000       0.471446        12.8287 
 159   0.0000       0.473983        12.8977 
 160   0.0000       0.477173        12.9845 
 161   0.0000       0.480620        13.0783 
 162   0.0000       0.491705        13.3800 
 163   0.0000       0.498678        13.5697 
 164   0.0000       0.508665        13.8415 
 165   0.0000       0.518690        14.1143 
 166   0.0000       0.531187        14.4543 
 167   0.0000       0.537439        14.6245 
 168   0.0000       0.552049        15.0220 
 169   0.0000       0.556987        15.1564 
 170   0.0000       0.557952        15.1826 
 171   0.0000       0.567897        15.4533 
 172   0.0000       0.576207        15.6794 
 173   0.0000       0.582080        15.8392 
 174   0.0000       0.587783        15.9944 
 175   0.0000       0.594246        16.1703 
 176   0.0000       0.603886        16.4326 
 177   0.0000       0.613120        16.6838 
 178   0.0000       0.616558        16.7774 
 179   0.0000       0.626549        17.0493 
 180   0.0000       0.633389        17.2354 
 181   0.0000       0.640996        17.4424 
 182   0.0000       0.650443        17.6994 
 183   0.0000       0.653527        17.7834 
 184   0.0000       0.664117        18.0715 
 185   0.0000       0.672133        18.2897 
 186   0.0000       0.682373        18.5683 
 187   0.0000       0.694574        18.9003 
 188   0.0000       0.704614        19.1735 
 189   0.0000       0.732570        19.9342 
 190   0.0000       0.741515        20.1776 
 191   0.0000       0.758637        20.6436 
 192   0.0000       0.764193        20.7948 
 193   0.0000       0.793729        21.5985 
 194   0.0000       0.798843        21.7376 
 195   0.0000       0.812719        22.1152 
 196   0.0000       0.820703        22.3325 
 197   0.0000       0.824684        22.4408 
 198   0.0000       0.838507        22.8169 
 199   0.0000       0.841410        22.8959 
 200   0.0000       0.844010        22.9667 
 201   0.0000       0.849330        23.1115 
 202   0.0000       0.852826        23.2066 
 203   0.0000       0.859948        23.4004 
 204   0.0000       0.869828        23.6692 
 205   0.0000       0.879618        23.9356 
 206   0.0000       0.891026        24.2460 
 207   0.0000       0.894653        24.3448 
 208   0.0000       0.897704        24.4278 
 209   0.0000       0.908976        24.7345 
 210   0.0000       0.916868        24.9492 
 211   0.0000       0.929154        25.2836 
 212   0.0000       0.935717        25.4622 
 213   0.0000       0.943254        25.6673 
 214   0.0000       0.945883        25.7388 
 215   0.0000       0.953405        25.9435 
 216   0.0000       0.963487        26.2178 
 217   0.0000       0.976291        26.5662 
 218   0.0000       0.981159        26.6987 
 219   0.0000       0.994403        27.0591 
 220   0.0000       0.999794        27.2058 
 221   0.0000       1.007492        27.4153 
 222   0.0000       1.012222        27.5440 
 223   0.0000       1.015382        27.6299 
 224   0.0000       1.021618        27.7996 
 225   0.0000       1.024595        27.8807 
 226   0.0000       1.027154        27.9503 
 227   0.0000       1.035904        28.1884 
 228   0.0000       1.036289        28.1989 
 229   0.0000       1.040113        28.3029 
 230   0.0000       1.049361        28.5546 
 231   0.0000       1.058017        28.7901 
 232   0.0000       1.067478        29.0476 
 233   0.0000       1.068747        29.0821 
 234   0.0000       1.074472        29.2379 
 235   0.0000       1.079029        29.3619 
 236   0.0000       1.082297        29.4508 
 237   0.0000       1.086035        29.5525 
 238   0.0000       1.093401        29.7530 
 239   0.0000       1.096626        29.8407 
 240   0.0000       1.106023        30.0964 
 241   0.0000       1.107560        30.1382 
 242   0.0000       1.112402        30.2700 
 243   0.0000       1.113559        30.3015 
 244   0.0000       1.122743        30.5514 
 245   0.0000       1.130433        30.7606 
 246   0.0000       1.139494        31.0072 
 247   0.0000       1.145570        31.1726 
 248   0.0000       1.150660        31.3110 
 249   0.0000       1.162654        31.6374 
 250   0.0000       1.165460        31.7138 
 251   0.0000       1.172537        31.9064 
 252   0.0000       1.173802        31.9408 
 253   0.0000       1.176884        32.0246 
 254   0.0000       1.184490        32.2316 
 255   0.0000       1.187093        32.3025 
 256   0.0000       1.200323        32.6624 
 257   0.0000       1.203149        32.7394 
 258   0.0000       1.211114        32.9561 
 259   0.0000       1.216907        33.1137 
 260   0.0000       1.220970        33.2243 
 261   0.0000       1.221887        33.2492 
 262   0.0000       1.228440        33.4276 
 263   0.0000       1.234646        33.5964 
 264   0.0000       1.239560        33.7301 
 265   0.0000       1.256191        34.1827 
 266   0.0000       1.264317        34.4038 
 267   0.0000       1.266492        34.4630 
 268   0.0000       1.269311        34.5397 
 269   0.0000       1.276592        34.7378 
 270   0.0000       1.287461        35.0336 
 271   0.0000       1.294757        35.2321 
 272   0.0000       1.300102        35.3776 
 273   0.0000       1.309786        35.6411 
 274   0.0000       1.319824        35.9142 
 275   0.0000       1.328277        36.1443 
 276   0.0000       1.333556        36.2879 
 277   0.0000       1.337209        36.3873 
 278   0.0000       1.341773        36.5115 
 279   0.0000       1.348764        36.7017 
 280   0.0000       1.358208        36.9587 
 281   0.0000       1.365533        37.1580 
 282   0.0000       1.367652        37.2157 
 283   0.0000       1.374524        37.4027 
 284   0.0000       1.384286        37.6683 
 285   0.0000       1.388333        37.7785 
 286   0.0000       1.396797        38.0088 
 287   0.0000       1.398345        38.0509 
 288   0.0000       1.406928        38.2844 
 289   0.0000       1.410522        38.3822 
 290   0.0000       1.425821        38.7986 
 291   0.0000       1.430983        38.9390 
 292   0.0000       1.439356        39.1669 
 293   0.0000       1.447883        39.3989 
 294   0.0000       1.457548        39.6619 
 295   0.0000       1.473218        40.0883 
 296   0.0000       1.477499        40.2048 
 297   0.0000       1.484207        40.3873 
 298   0.0000       1.494536        40.6684 
 299   0.0000       1.506220        40.9863 
 300   0.0000       1.513200        41.1763 
 301   0.0000       1.516551        41.2674 
 302   0.0000       1.521632        41.4057 
 303   0.0000       1.526788        41.5460 
 304   0.0000       1.533148        41.7191 
 305   0.0000       1.543386        41.9977 
 306   0.0000       1.556344        42.3503 
 307   0.0000       1.571996        42.7762 
 308   0.0000       1.578783        42.9609 
 309   0.0000       1.592016        43.3210 
 310   0.0000       1.592729        43.3404 
 311   0.0000       1.600784        43.5596 
 312   0.0000       1.610842        43.8332 
 313   0.0000       1.622120        44.1401 
 314   0.0000       1.638605        44.5887 
 315   0.0000       1.641667        44.6720 
 316   0.0000       1.652463        44.9658 
 317   0.0000       1.665381        45.3173 
 318   0.0000       1.667061        45.3630 
 319   0.0000       1.669117        45.4190 
 320   0.0000       1.680901        45.7397 
 321   0.0000       1.685294        45.8592 
 322   0.0000       1.702848        46.3369 
 323   0.0000       1.714091        46.6428 
 324   0.0000       1.722711        46.8774 
 325   0.0000       1.725442        46.9517 
 326   0.0000       1.732945        47.1558 
 327   0.0000       1.738681        47.3119 
 328   0.0000       1.746376        47.5213 
 329   0.0000       1.759990        47.8918 
 330   0.0000       1.761461        47.9318 
 331   0.0000       1.771708        48.2106 
 332   0.0000       1.777397        48.3654 
 333   0.0000       1.794440        48.8292 
 334   0.0000       1.799857        48.9766 
 335   0.0000       1.807160        49.1753 
 336   0.0000       1.812260        49.3141 
 337   0.0000       1.813554        49.3493 
 338   0.0000       1.824295        49.6416 
 339   0.0000       1.842255        50.1303 
 340   0.0000       1.848266        50.2939 
 341   0.0000       1.849604        50.3303 
 342   0.0000       1.854358        50.4597 
 343   0.0000       1.860526        50.6275 
 344   0.0000       1.873399        50.9778 
 345   0.0000       1.877233        51.0821 
 346   0.0000       1.888438        51.3870 
 347   0.0000       1.896759        51.6134 
 348   0.0000       1.904335        51.8196 
 349   0.0000       1.917864        52.1877 
 350   0.0000       1.923712        52.3469 
 351   0.0000       1.929437        52.5026 
 352   0.0000       1.937263        52.7156 
 353   0.0000       1.958882        53.3039 
 354   0.0000       1.970900        53.6309 
 355   0.0000       1.981947        53.9315 
 356   0.0000       1.989433        54.1352 
 357   0.0000       1.995450        54.2990 
 358   0.0000       2.001581        54.4658 
 359   0.0000       2.005303        54.5671 
 360   0.0000       2.025783        55.1244 
 361   0.0000       2.035289        55.3830 
 362   0.0000       2.040421        55.5227 
 363   0.0000       2.056175        55.9514 
 364   0.0000       2.067126        56.2493 
 365   0.0000       2.077440        56.5300 
 366   0.0000       2.098484        57.1026 
 367   0.0000       2.106636        57.3245 
 368   0.0000       2.122872        57.7663 
 369   0.0000       2.141538        58.2742 
 370   0.0000       2.152071        58.5608 
 371   0.0000       2.154304        58.6216 
 372   0.0000       2.178615        59.2831 
 373   0.0000       2.191636        59.6374 
 374   0.0000       2.211738        60.1844 
 375   0.0000       2.232275        60.7433 
 376   0.0000       2.246660        61.1347 
 377   0.0000       2.262924        61.5773 
 378   0.0000       2.280823        62.0644 
 379   0.0000       2.294121        62.4262 
 380   0.0000       2.307889        62.8008 
 381   0.0000       2.345838        63.8335 
 382   0.0000       2.372373        64.5556 
 383   0.0000       2.375177        64.6319 
 384   0.0000       2.383310        64.8532 
 385   0.0000       2.394979        65.1707 
 386   0.0000       2.404486        65.4294 
 387   0.0000       2.407107        65.5007 
 388   0.0000       2.434439        66.2445 
 389   0.0000       2.450790        66.6894 
 390   0.0000       2.458216        66.8915 
 391   0.0000       2.467469        67.1432 
 392   0.0000       2.493995        67.8650 
 393   0.0000       2.514816        68.4316 
 394   0.0000       2.556937        69.5778 
 395   0.0000       2.573689        70.0336 
 396   0.0000       2.585030        70.3423 
 397   0.0000       2.590107        70.4804 
 398   0.0000       2.611070        71.0508 
 399   0.0000       2.626117        71.4603 
 400   0.0000       2.663552        72.4789 
 401   0.0000       2.671949        72.7074 
 402   0.0000       2.743011        74.6411 
 403   0.0000       2.778100        75.5960 
 404   0.0000       2.797641        76.1277 
 405   0.0000       2.826464        76.9120 
 406   0.0000       2.854887        77.6854 
 407   0.0000       2.888290        78.5944 
 408   0.0000       2.908019        79.1312 
 409   0.0000       2.911615        79.2291 
 410   0.0000       2.924679        79.5846 
 411   0.0000       2.939475        79.9872 
 412   0.0000       2.946384        80.1752 
 413   0.0000       2.961633        80.5901 
 414   0.0000       2.970249        80.8246 
 415   0.0000       2.989284        81.3425 
 416   0.0000       3.006477        81.8104 
 417   0.0000       3.025526        82.3287 
 418   0.0000       3.035178        82.5914 
 419   0.0000       3.048111        82.9433 
 420   0.0000       3.058375        83.2226 
 421   0.0000       3.070471        83.5518 
 422   0.0000       3.081392        83.8489 
 423   0.0000       3.097532        84.2881 
 424   0.0000       3.101081        84.3847 
 425   0.0000       3.112474        84.6947 
 426   0.0000       3.120463        84.9121 
 427   0.0000       3.139946        85.4423 
 428   0.0000       3.143832        85.5480 
 429   0.0000       3.157506        85.9201 
 430   0.0000       3.160106        85.9908 
 431   0.0000       3.173961        86.3679 
 432   0.0000       3.180388        86.5428 
 433   0.0000       3.206324        87.2485 
 434   0.0000       3.214163        87.4618 
 435   0.0000       3.217951        87.5649 
 436   0.0000       3.229560        87.8808 
 437   0.0000       3.245492        88.3143 
 438   0.0000       3.248078        88.3847 
 439   0.0000       3.258490        88.6680 
 440   0.0000       3.268480        88.9399 
 441   0.0000       3.281903        89.3051 
 442   0.0000       3.290968        89.5518 
 443   0.0000       3.308985        90.0421 
 444   0.0000       3.314103        90.1813 
 445   0.0000       3.321696        90.3879 
 446   0.0000       3.323542        90.4382 
 447   0.0000       3.343597        90.9839 
 448   0.0000       3.354145        91.2709 
 449   0.0000       3.363204        91.5174 
 450   0.0000       3.370069        91.7042 
 451   0.0000       3.390959        92.2727 
 452   0.0000       3.394242        92.3620 
 453   0.0000       3.403793        92.6219 
 454   0.0000       3.411556        92.8332 
 455   0.0000       3.415378        92.9372 
 456   0.0000       3.428453        93.2929 
 457   0.0000       3.439387        93.5905 
 458   0.0000       3.450030        93.8801 
 459   0.0000       3.453936        93.9864 
 460   0.0000       3.468671        94.3873 
 461   0.0000       3.477025        94.6147 
 462   0.0000       3.499386        95.2231 
 463   0.0000       3.501050        95.2684 
 464   0.0000       3.507134        95.4340 
 465   0.0000       3.518095        95.7322 
 466   0.0000       3.528460        96.0143 
 467   0.0000       3.536649        96.2371 
 468   0.0000       3.547821        96.5411 
 469   0.0000       3.553308        96.6904 
 470   0.0000       3.556828        96.7862 
 471   0.0000       3.569669        97.1356 
 472   0.0000       3.578347        97.3718 
 473   0.0000       3.589942        97.6873 
 474   0.0000       3.598101        97.9093 
 475   0.0000       3.621017        98.5329 
 476   0.0000       3.634904        98.9108 
 477   0.0000       3.641596        99.0929 
 478   0.0000       3.650449        99.3338 
 479   0.0000       3.663687        99.6940 
 480   0.0000       3.666340        99.7662 
 481   0.0000       3.677138       100.0600 
 482   0.0000       3.686742       100.3214 
 483   0.0000       3.697062       100.6022 
 484   0.0000       3.705178       100.8230 
 485   0.0000       3.713361       101.0457 
 486   0.0000       3.728025       101.4447 
 487   0.0000       3.736579       101.6775 
 488   0.0000       3.746038       101.9349 
 489   0.0000       3.747372       101.9712 
 490   0.0000       3.753345       102.1337 
 491   0.0000       3.760652       102.3325 
 492   0.0000       3.769752       102.5802 
 493   0.0000       3.776534       102.7647 
 494   0.0000       3.792298       103.1937 
 495   0.0000       3.798154       103.3530 
 496   0.0000       3.802973       103.4841 
 497   0.0000       3.812510       103.7437 
 498   0.0000       3.818202       103.8986 
 499   0.0000       3.834812       104.3505 
 500   0.0000       3.838761       104.4580 
 501   0.0000       3.852071       104.8202 
 502   0.0000       3.858796       105.0032 
 503   0.0000       3.866992       105.2262 
 504   0.0000       3.872662       105.3805 
 505   0.0000       3.883401       105.6727 
 506   0.0000       3.894627       105.9782 
 507   0.0000       3.897959       106.0688 
 508   0.0000       3.899505       106.1109 
 509   0.0000       3.913432       106.4899 
 510   0.0000       3.921781       106.7171 
 511   0.0000       3.930689       106.9595 
 512   0.0000       3.937252       107.1381 
 513   0.0000       3.941721       107.2597 
 514   0.0000       3.952808       107.5614 
 515   0.0000       3.953710       107.5859 
 516   0.0000       3.966264       107.9275 
 517   0.0000       3.973350       108.1203 
 518   0.0000       3.986553       108.4796 
 519   0.0000       3.994061       108.6839 
 520   0.0000       3.999088       108.8207 
 521   0.0000       4.008867       109.0868 
 522   0.0000       4.015276       109.2612 
 523   0.0000       4.021837       109.4398 
 524   0.0000       4.024360       109.5084 
 525   0.0000       4.052735       110.2805 
 526   0.0000       4.057305       110.4049 
 527   0.0000       4.064600       110.6034 
 528   0.0000       4.077221       110.9468 
 529   0.0000       4.081672       111.0679 
 530   0.0000       4.089790       111.2889 
 531   0.0000       4.092933       111.3744 
 532   0.0000       4.099892       111.5637 
 533   0.0000       4.105298       111.7108 
 534   0.0000       4.118015       112.0569 
 535   0.0000       4.127858       112.3247 
 536   0.0000       4.132540       112.4521 
 537   0.0000       4.136087       112.5487 
 538   0.0000       4.145497       112.8047 
 539   0.0000       4.158757       113.1655 
 540   0.0000       4.169249       113.4510 
 541   0.0000       4.172738       113.5460 
 542   0.0000       4.176601       113.6511 
 543   0.0000       4.190158       114.0200 
 544   0.0000       4.196177       114.1838 
 545   0.0000       4.200265       114.2950 
 546   0.0000       4.206152       114.4552 
 547   0.0000       4.214584       114.6847 
 548   0.0000       4.218545       114.7924 
 549   0.0000       4.225715       114.9875 
 550   0.0000       4.243362       115.4678 
 551   0.0000       4.251240       115.6821 
 552   0.0000       4.257855       115.8621 
 553   0.0000       4.264030       116.0301 
 554   0.0000       4.271548       116.2347 
 555   0.0000       4.280457       116.4772 
 556   0.0000       4.286554       116.6431 
 557   0.0000       4.291896       116.7884 
 558   0.0000       4.293976       116.8450 
 559   0.0000       4.301275       117.0436 
 560   0.0000       4.307203       117.2049 
 561   0.0000       4.316806       117.4663 
 562   0.0000       4.321464       117.5930 
 563   0.0000       4.333003       117.9070 
 564   0.0000       4.339716       118.0897 
 565   0.0000       4.340644       118.1149 
 566   0.0000       4.350325       118.3784 
 567   0.0000       4.352997       118.4511 
 568   0.0000       4.358842       118.6101 
 569   0.0000       4.365895       118.8020 
 570   0.0000       4.373489       119.0087 
 571   0.0000       4.374457       119.0350 
 572   0.0000       4.389509       119.4446 
 573   0.0000       4.392542       119.5271 
 574   0.0000       4.400604       119.7465 
 575   0.0000       4.405129       119.8696 
 576   0.0000       4.406856       119.9167 
 577   0.0000       4.416718       120.1850 
 578   0.0000       4.424637       120.4005 
 579   0.0000       4.428512       120.5059 
 580   0.0000       4.438194       120.7694 
 581   0.0000       4.447541       121.0237 
 582   0.0000       4.454494       121.2129 
 583   0.0000       4.456107       121.2568 
 584   0.0000       4.460118       121.3660 
 585   0.0000       4.468758       121.6011 
 586   0.0000       4.475634       121.7882 
 587   0.0000       4.485397       122.0539 
 588   0.0000       4.490224       122.1852 
 589   0.0000       4.493141       122.2646 
 590   0.0000       4.501072       122.4804 
 591   0.0000       4.507915       122.6666 
 592   0.0000       4.513009       122.8052 
 593   0.0000       4.516015       122.8870 
 594   0.0000       4.521443       123.0347 
 595   0.0000       4.528485       123.2263 
 596   0.0000       4.532985       123.3488 
 597   0.0000       4.538848       123.5083 
 598   0.0000       4.546197       123.7083 
 599   0.0000       4.554343       123.9300 
 600   0.0000       4.557063       124.0040 
 601   0.0000       4.559421       124.0681 
 602   0.0000       4.565024       124.2206 
 603   0.0000       4.570279       124.3636 
 604   0.0000       4.574057       124.4664 
 605   0.0000       4.581017       124.6558 
 606   0.0000       4.582441       124.6946 
 607   0.0000       4.592867       124.9783 
 608   0.0000       4.598383       125.1284 
 609   0.0000       4.600532       125.1868 
 610   0.0000       4.603974       125.2805 
 611   0.0000       4.610431       125.4562 
 612   0.0000       4.620043       125.7178 
 613   0.0000       4.622137       125.7747 
 614   0.0000       4.625292       125.8606 
 615   0.0000       4.631605       126.0324 
 616   0.0000       4.636477       126.1649 
 617   0.0000       4.646370       126.4342 
 618   0.0000       4.648801       126.5003 
 619   0.0000       4.655501       126.6826 
 620   0.0000       4.665645       126.9586 
 621   0.0000       4.668165       127.0272 
 622   0.0000       4.673937       127.1843 
 623   0.0000       4.677305       127.2759 
 624   0.0000       4.689249       127.6010 
 625   0.0000       4.700428       127.9051 
 626   0.0000       4.701630       127.9379 
 627   0.0000       4.704088       128.0047 
 628   0.0000       4.709187       128.1435 
 629   0.0000       4.716528       128.3433 
 630   0.0000       4.718320       128.3920 
 631   0.0000       4.727372       128.6383 
 632   0.0000       4.730626       128.7269 
 633   0.0000       4.736910       128.8979 
 634   0.0000       4.745107       129.1209 
 635   0.0000       4.753049       129.3370 
 636   0.0000       4.756150       129.4214 
 637   0.0000       4.764455       129.6474 
 638   0.0000       4.780011       130.0707 
 639   0.0000       4.783486       130.1653 
 640   0.0000       4.791115       130.3729 
 641   0.0000       4.793404       130.4352 
 642   0.0000       4.799582       130.6033 
 643   0.0000       4.803706       130.7155 
 644   0.0000       4.810844       130.9097 
 645   0.0000       4.813440       130.9804 
 646   0.0000       4.819497       131.1452 
 647   0.0000       4.823149       131.2446 
 648   0.0000       4.830302       131.4392 
 649   0.0000       4.838246       131.6554 
 650   0.0000       4.842837       131.7803 
 651   0.0000       4.851470       132.0152 
 652   0.0000       4.860953       132.2733 
 653   0.0000       4.865919       132.4084 
 654   0.0000       4.871776       132.5678 
 655   0.0000       4.877314       132.7185 
 656   0.0000       4.881219       132.8247 
 657   0.0000       4.893696       133.1642 
 658   0.0000       4.896162       133.2313 
 659   0.0000       4.905271       133.4792 
 660   0.0000       4.909904       133.6053 
 661   0.0000       4.914820       133.7391 
 662   0.0000       4.917873       133.8221 
 663   0.0000       4.926830       134.0659 
 664   0.0000       4.934388       134.2715 
 665   0.0000       4.944507       134.5469 
 666   0.0000       4.954754       134.8257 
 667   0.0000       4.960076       134.9705 
 668   0.0000       4.965667       135.1227 
 669   0.0000       4.971976       135.2943 
 670   0.0000       4.977986       135.4579 
 671   0.0000       4.987800       135.7249 
 672   0.0000       4.990003       135.7849 
 673   0.0000       4.998849       136.0256 
 674   0.0000       5.005161       136.1974 
 675   0.0000       5.010994       136.3561 
 676   0.0000       5.016720       136.5119 
 677   0.0000       5.025414       136.7485 
 678   0.0000       5.033554       136.9700 
 679   0.0000       5.037984       137.0905 
 680   0.0000       5.050969       137.4438 
 681   0.0000       5.059426       137.6740 
 682   0.0000       5.070696       137.9807 
 683   0.0000       5.080279       138.2414 
 684   0.0000       5.087983       138.4510 
 685   0.0000       5.090695       138.5249 
 686   0.0000       5.096762       138.6899 
 687   0.0000       5.104803       138.9088 
 688   0.0000       5.108763       139.0165 
 689   0.0000       5.116013       139.2138 
 690   0.0000       5.127482       139.5259 
 691   0.0000       5.133001       139.6761 
 692   0.0000       5.136964       139.7839 
 693   0.0000       5.147726       140.0767 
 694   0.0000       5.155372       140.2848 
 695   0.0000       5.163970       140.5188 
 696   0.0000       5.180089       140.9574 
 697   0.0000       5.186091       141.1207 
 698   0.0000       5.213616       141.8697 
 699   0.0000       5.218030       141.9898 
 700   0.0000       5.225253       142.1864 
 701   0.0000       5.239283       142.5681 
 702   0.0000       5.244430       142.7082 
 703   0.0000       5.265230       143.2742 
 704   0.0000       5.276066       143.5691 
 705   0.0000       5.281638       143.7207 
 706   0.0000       5.294229       144.0633 
 707   0.0000       5.303815       144.3241 
 708   0.0000       5.308256       144.4450 
 709   0.0000       5.331099       145.0666 
 710   0.0000       5.337670       145.2454 
 711   0.0000       5.353588       145.6785 
 712   0.0000       5.372559       146.1948 
 713   0.0000       5.377498       146.3292 
 714   0.0000       5.386804       146.5824 
 715   0.0000       5.388430       146.6266 
 716   0.0000       5.404412       147.0615 
 717   0.0000       5.408238       147.1656 
 718   0.0000       5.415575       147.3653 
 719   0.0000       5.431783       147.8063 
 720   0.0000       5.433976       147.8660 
 721   0.0000       5.442751       148.1048 
 722   0.0000       5.448901       148.2721 
 723   0.0000       5.466120       148.7407 
 724   0.0000       5.482781       149.1941 
 725   0.0000       5.490163       149.3949 
 726   0.0000       5.497383       149.5914 
 727   0.0000       5.501592       149.7059 
 728   0.0000       5.511741       149.9821 
 729   0.0000       5.523243       150.2951 
 730   0.0000       5.525299       150.3510 
 731   0.0000       5.533845       150.5836 
 732   0.0000       5.539511       150.7378 
 733   0.0000       5.546811       150.9364 
 734   0.0000       5.560741       151.3155 
 735   0.0000       5.563791       151.3985 
 736   0.0000       5.577517       151.7720 
 737   0.0000       5.597000       152.3021 
 738   0.0000       5.601276       152.4185 
 739   0.0000       5.607477       152.5872 
 740   0.0000       5.615883       152.8159 
 741   0.0000       5.626605       153.1077 
 742   0.0000       5.638976       153.4443 
 743   0.0000       5.653791       153.8475 
 744   0.0000       5.663777       154.1192 
 745   0.0000       5.668196       154.2394 
 746   0.0000       5.677285       154.4868 
 747   0.0000       5.689020       154.8061 
 748   0.0000       5.691504       154.8737 
 749   0.0000       5.714367       155.4958 
 750   0.0000       5.724590       155.7740 
 751   0.0000       5.736587       156.1005 
 752   0.0000       5.739284       156.1739 
 753   0.0000       5.747309       156.3922 
 754   0.0000       5.756822       156.6511 
 755   0.0000       5.766442       156.9129 
 756   0.0000       5.779427       157.2662 
 757   0.0000       5.796054       157.7186 
 758   0.0000       5.800345       157.8354 
 759   0.0000       5.809068       158.0728 
 760   0.0000       5.814251       158.2138 
 761   0.0000       5.824932       158.5045 
 762   0.0000       5.830134       158.6460 
 763   0.0000       5.837640       158.8503 
 764   0.0000       5.855622       159.3396 
 765   0.0000       5.869203       159.7091 
 766   0.0000       5.870592       159.7469 
 767   0.0000       5.881318       160.0388 
 768   0.0000       5.890513       160.2890 
 769   0.0000       5.894670       160.4021 
 770   0.0000       5.903812       160.6509 
 771   0.0000       5.912077       160.8758 
 772   0.0000       5.935492       161.5129 
 773   0.0000       5.940868       161.6592 
 774   0.0000       5.954946       162.0423 
 775   0.0000       5.965940       162.3415 
 776   0.0000       5.998616       163.2306 
 777   0.0000       6.007516       163.4728 
 778   0.0000       6.026503       163.9895 
 779   0.0000       6.039297       164.3376 
 780   0.0000       6.060968       164.9273 
 781   0.0000       6.065912       165.0619 
 782   0.0000       6.076028       165.3371 
 783   0.0000       6.115499       166.4112 
 784   0.0000       6.122257       166.5951 
 785   0.0000       6.136014       166.9694 
 786   0.0000       6.160068       167.6240 
 787   0.0000       6.179223       168.1452 
 788   0.0000       6.206602       168.8902 
 789   0.0000       6.231065       169.5559 
 790   0.0000       6.242420       169.8649 
 791   0.0000       6.258469       170.3016 
 792   0.0000       6.277265       170.8131 
 793   0.0000       6.309778       171.6978 
 794   0.0000       6.347681       172.7292 
 795   0.0000       6.392683       173.9537 
 796   0.0000       6.410893       174.4493 
 797   0.0000       6.427467       174.9003 
 798   0.0000       6.441764       175.2893 
 799   0.0000       6.449295       175.4942 
 800   0.0000       6.467949       176.0019 
 801   0.0000       6.496501       176.7788 
 802   0.0000       6.507454       177.0768 
 803   0.0000       6.510195       177.1514 
 804   0.0000       6.531460       177.7301 
 805   0.0000       6.561042       178.5350 
 806   0.0000       6.604776       179.7251 
 807   0.0000       6.648858       180.9246 
 808   0.0000       6.668369       181.4556 
 809   0.0000       6.676543       181.6780 
 810   0.0000       6.709924       182.5863 
 811   0.0000       6.736309       183.3043 
 812   0.0000       6.799231       185.0165 
 813   0.0000       6.808491       185.2685 
 814   0.0000       6.821825       185.6313 
 815   0.0000       6.833812       185.9575 
 816   0.0000       6.853498       186.4932 
 817   0.0000       6.867375       186.8708 
 818   0.0000       6.889102       187.4620 
 819   0.0000       6.894775       187.6164 
 820   0.0000       6.912251       188.0919 
 821   0.0000       6.967820       189.6040 
 822   0.0000       6.987455       190.1383 
 823   0.0000       7.044440       191.6890 
 824   0.0000       7.081075       192.6859 
 825   0.0000       7.104931       193.3350 
 826   0.0000       7.170943       195.1313 
 827   0.0000       7.292628       198.4425 
 828   0.0000       7.448770       202.6913 
 829   0.0000       7.943455       216.1524 
 830   0.0000       8.272365       225.1025 
 831   0.0000       8.431763       229.4399 
 832   0.0000       8.751200       238.1323 
 833   0.0000       8.782930       238.9957 
 834   0.0000       9.979460       271.5549 
 835   0.0000      12.124896       329.9352 
 836   0.0000      18.408487       500.9204 
 837   0.0000      18.500971       503.4370 
 838   0.0000      18.525734       504.1109 
 839   0.0000      18.560644       505.0608 
 840   0.0000      18.577929       505.5312 
 841   0.0000      18.596161       506.0273 
 842   0.0000      18.620187       506.6811 
 843   0.0000      18.656596       507.6718 
 844   0.0000      18.666847       507.9507 
 845   0.0000      18.694339       508.6988 
 846   0.0000      18.697423       508.7828 
 847   0.0000      18.721482       509.4374 
 848   0.0000      18.750962       510.2396 
 849   0.0000      18.766038       510.6499 
 850   0.0000      18.813583       511.9436 
 851   0.0000      18.825879       512.2782 
 852   0.0000      18.839320       512.6440 
 853   0.0000      18.846425       512.8373 
 854   0.0000      18.892037       514.0785 
 855   0.0000      18.905423       514.4427 
 856   0.0000      18.935083       515.2498 
 857   0.0000      18.945380       515.5300 
 858   0.0000      18.961584       515.9709 
 859   0.0000      18.965477       516.0769 
 860   0.0000      18.982359       516.5363 
 861   0.0000      18.989423       516.7285 
 862   0.0000      18.994557       516.8682 
 863   0.0000      19.005666       517.1705 
 864   0.0000      19.024088       517.6717 
 865   0.0000      19.045992       518.2678 
 866   0.0000      19.125653       520.4355 
 867   0.0000      19.138340       520.7807 
 868   0.0000      19.154394       521.2176 
 869   0.0000      19.159897       521.3673 
 870   0.0000      19.255801       523.9770 
 871   0.0000      19.272613       524.4345 
 872   0.0000      19.293338       524.9984 
 873   0.0000      19.385555       527.5078 
 874   0.0000      19.413495       528.2680 
 875   0.0000      19.495143       530.4898 
 876   0.0000      19.555245       532.1253 
 877   0.0000      19.564432       532.3753 
 878   0.0000      19.587008       532.9896 
 879   0.0000      19.596238       533.2408 
 880   0.0000      19.618315       533.8415 
 881   0.0000      19.917981       541.9958 
 882   0.0000      19.934414       542.4430 
 883   0.0000      20.378656       554.5314 

                    ********************************
                    * MULLIKEN POPULATION ANALYSIS *
                    ********************************

-----------------------
MULLIKEN ATOMIC CHARGES
-----------------------
   0 C :    0.173866
   1 C :   -0.278643
   2 C :   -0.281082
   3 C :    0.195000
   4 C :   -0.217016
   5 C :    0.170387
   6 C :   -0.009561
   7 C :   -0.019947
   8 C :    0.001536
   9 C :   -0.036034
  10 C :   -0.071879
  11 C :    0.003471
  12 C :   -0.087129
  13 C :   -0.022028
  14 C :   -0.060803
  15 H :   -0.009549
  16 H :   -0.009870
  17 H :   -0.023348
  18 H :    0.047177
  19 H :    0.045170
  20 H :    0.031704
  21 H :    0.048064
  22 H :    0.046196
  23 H :    0.039711
  24 H :    0.023903
  25 H :    0.022588
  26 H :    0.026377
  27 H :    0.014629
  28 H :    0.022302
  29 H :    0.024883
  30 H :    0.026068
  31 H :    0.029814
  32 H :    0.014498
  33 H :    0.016327
  34 H :    0.005888
  35 C :    0.049622
  36 H :    0.046903
  37 H :    0.000805
Sum of atomic charges:   -0.0000000

--------------------------------
MULLIKEN REDUCED ORBITAL CHARGES
--------------------------------
  0 C s       :     2.998788  s :     2.998788
      pz      :     0.884438  p :     2.716486
      px      :     0.933095
      py      :     0.898953
      dz2     :     0.025713  d :     0.105014
      dxz     :     0.016133
      dyz     :     0.032513
      dx2y2   :     0.012730
      dxy     :     0.017925
      f0      :     0.001211  f :     0.005846
      f+1     :     0.000685
      f-1     :     0.000598
      f+2     :     0.000899
      f-2     :     0.000812
      f+3     :     0.000720
      f-3     :     0.000921
  1 C s       :     3.253522  s :     3.253522
      pz      :     0.972228  p :     2.946968
      px      :     1.006086
      py      :     0.968654
      dz2     :     0.016793  d :     0.073641
      dxz     :     0.009830
      dyz     :     0.022543
      dx2y2   :     0.012801
      dxy     :     0.011674
      f0      :     0.000797  f :     0.004513
      f+1     :     0.000453
      f-1     :     0.000293
      f+2     :     0.000782
      f-2     :     0.000571
      f+3     :     0.000738
      f-3     :     0.000879
  2 C s       :     3.230628  s :     3.230628
      pz      :     0.980427  p :     2.971985
      px      :     1.006811
      py      :     0.984747
      dz2     :     0.016113  d :     0.073933
      dxz     :     0.010136
      dyz     :     0.023773
      dx2y2   :     0.012148
      dxy     :     0.011762
[...]


 Diagonalized sT*s matrix:
 
 sDSO            33.305           29.117           44.030  iso=      35.484
 sPSO            -7.661           -1.376           -9.229  iso=      -6.089
        ---------------  ---------------  ---------------
 Total           25.644           27.741           34.801  iso=      29.395

 --------------
 Nucleus  20H :
 --------------

Diamagnetic contribution to the shielding tensor (ppm) : 
            25.805          4.699         2.369
             6.173         39.548         0.584
            -3.637         -3.482        23.035

Paramagnetic contribution to the shielding tensor (ppm): 
             1.665         -3.326        -0.964
            -2.900         -7.808        -1.830
             3.544          1.318         5.096

Total shielding tensor (ppm): 
            27.470          1.374         1.405
             3.274         31.740        -1.247
            -0.093         -2.165        28.131


 Diagonalized sT*s matrix:
 
 sDSO            24.035           23.358           40.995  iso=      29.463
 sPSO             1.662            5.173           -7.881  iso=      -0.349
        ---------------  ---------------  ---------------
 Total           25.697           28.531           33.114  iso=      29.114

 --------------
 Nucleus  21H :
 --------------

Diamagnetic contribution to the shielding tensor (ppm) : 
            34.204          1.081        -2.448
            -0.979         26.524        -0.097
           -10.468         -6.970        40.161

Paramagnetic contribution to the shielding tensor (ppm): 
            -7.960         -0.605         0.167
             1.439         -1.204        -1.080
             8.275          6.595        -7.227

Total shielding tensor (ppm): 
            26.244          0.476        -2.281
             0.460         25.320        -1.176
            -2.193         -0.375        32.934


 Diagonalized sT*s matrix:
 
 sDSO            28.117           29.009           43.763  iso=      33.630
 sPSO            -2.999           -3.335          -10.058  iso=      -5.464
        ---------------  ---------------  ---------------
 Total           25.119           25.675           33.705  iso=      28.166

 --------------
 Nucleus  22H :
 --------------

Diamagnetic contribution to the shielding tensor (ppm) : 
            11.000          5.552        20.735
             4.351         16.061        -6.465
            17.273          0.876        31.091

Paramagnetic contribution to the shielding tensor (ppm): 
            17.954         -7.060       -16.728
            -5.476         10.397         5.542
           -13.313         -2.850        -1.330

Total shielding tensor (ppm): 
            28.954         -1.508         4.007
            -1.126         26.458        -0.923
             3.960         -1.973        29.761


 Diagonalized sT*s matrix:
 
 sDSO             1.226           18.331           38.594  iso=      19.384
 sPSO            24.127            7.611           -4.717  iso=       9.007
        ---------------  ---------------  ---------------
 Total           25.353           25.942           33.877  iso=      28.391

 --------------
 Nucleus  23H :
 --------------

Diamagnetic contribution to the shielding tensor (ppm) : 
            14.678         -6.923       -11.621
             4.554         25.154        -0.505
             5.768          8.713        38.313

Paramagnetic contribution to the shielding tensor (ppm): 
            14.398          8.998         8.566
            -2.359          4.146        -0.025
            -5.715        -11.248        -7.117

Total shielding tensor (ppm): 
            29.076          2.075        -3.055
             2.195         29.300        -0.530
             0.053         -2.535        31.196


 Diagonalized sT*s matrix:
 
 sDSO            21.044           29.459           27.642  iso=      26.048
 sPSO             6.010           -0.345            5.762  iso=       3.809
        ---------------  ---------------  ---------------
 Total           27.053           29.115           33.404  iso=      29.857

 --------------
 Nucleus  24H :
 --------------

Diamagnetic contribution to the shielding tensor (ppm) : 
             1.094         -7.054        -6.342
             3.181         16.654        15.494
            10.786         21.641        33.946

Paramagnetic contribution to the shielding tensor (ppm): 
            25.985          4.014         5.653
            -4.317         11.590        -9.592
            -9.927        -16.207        -0.072

Total shielding tensor (ppm): 
            27.078         -3.040        -0.690
            -1.137         28.243         5.903
             0.859          5.434        33.874


 Diagonalized sT*s matrix:
 
 sDSO             1.608            4.748           45.338  iso=      17.231
 sPSO            22.114           23.238           -7.849  iso=      12.501
        ---------------  ---------------  ---------------
 Total           23.721           27.986           37.488  iso=      29.732

 --------------
 Nucleus  25H :
 --------------

Diamagnetic contribution to the shielding tensor (ppm) : 
            10.552        -13.170        -7.335
            -2.371         33.048        20.588
             2.944         11.277        19.878

Paramagnetic contribution to the shielding tensor (ppm): 
            18.279          9.308         8.055
            -1.363         -0.356       -16.048
            -1.292         -6.847         7.971

Total shielding tensor (ppm): 
            28.831         -3.862         0.719
            -3.734         32.692         4.540
             1.652          4.430        27.848


 Diagonalized sT*s matrix:
 
 sDSO             7.011           12.376           44.091  iso=      21.159
 sPSO            16.360           17.220           -7.686  iso=       8.631
        ---------------  ---------------  ---------------
 Total           23.371           29.596           36.405  iso=      29.791

 --------------
 Nucleus  26H :
 --------------

Diamagnetic contribution to the shielding tensor (ppm) : 
            15.875          3.985        -5.208
             5.111         34.814         8.436
             2.086          0.011        32.932

Paramagnetic contribution to the shielding tensor (ppm): 
            14.695         -6.250         2.885
            -3.025         -5.286       -10.382
            -2.890          0.900        -2.169

Total shielding tensor (ppm): 
            30.570         -2.265        -2.323
             2.086         29.528        -1.946
            -0.803          0.912        30.763


 Diagonalized sT*s matrix:
 
 sDSO            30.577           26.238           26.807  iso=      27.874
 sPSO            -1.734            3.517            5.457  iso=       2.413
        ---------------  ---------------  ---------------
 Total           28.842           29.755           32.264  iso=      30.287

 --------------
 Nucleus  27H :
 --------------

Diamagnetic contribution to the shielding tensor (ppm) : 
            34.678        -17.139         1.165
            -3.500         36.990        -2.658
             3.698        -20.513        36.268

Paramagnetic contribution to the shielding tensor (ppm): 
            -4.653         13.864         2.338
             1.470        -11.256        -0.611
            -1.711         17.549        -3.839

Total shielding tensor (ppm): 
            30.025         -3.275         3.504
            -2.029         25.734        -3.269
             1.987         -2.964        32.429


 Diagonalized sT*s matrix:
 
 sDSO            26.058           33.263           48.614  iso=      35.979
 sPSO            -2.007           -4.983          -12.758  iso=      -6.582
        ---------------  ---------------  ---------------
 Total           24.051           28.281           35.856  iso=      29.396

 --------------
 Nucleus  28H :
 --------------

Diamagnetic contribution to the shielding tensor (ppm) : 
            43.041        -10.905        -3.465
            -2.262         46.470         1.626
             0.607         -7.376        40.061

Paramagnetic contribution to the shielding tensor (ppm): 
           -14.991         12.887         5.436
             2.573        -16.643        -1.244
            -0.729         10.519       -10.974

Total shielding tensor (ppm): 
            28.050          1.982         1.971
             0.311         29.827         0.381
            -0.122          3.143        29.087


 Diagonalized sT*s matrix:
 
 sDSO            45.779           46.213           37.580  iso=      43.191
 sPSO           -18.297          -18.559           -5.753  iso=     -14.203
        ---------------  ---------------  ---------------
 Total           27.482           27.655           31.827  iso=      28.988

 --------------
 Nucleus  29H :
 --------------

Diamagnetic contribution to the shielding tensor (ppm) : 
            14.570        -21.381       -12.256
             2.535         46.048         9.699
            -2.820         -4.466        22.369

Paramagnetic contribution to the shielding tensor (ppm): 
            12.389         15.126        13.075
            -5.624        -13.204       -10.500
             2.862          3.716         8.007

Total shielding tensor (ppm): 
            26.959         -6.255         0.819
            -3.088         32.845        -0.801
             0.042         -0.750        30.376


 Diagonalized sT*s matrix:
 
 sDSO            13.468           25.103           44.416  iso=      27.663
 sPSO            10.921            5.122           -8.849  iso=       2.398
        ---------------  ---------------  ---------------
 Total           24.389           30.225           35.566  iso=      30.060

 --------------
 Nucleus  30H :
 --------------

Diamagnetic contribution to the shielding tensor (ppm) : 
            35.325        -19.405       -11.961
             1.108         35.136         2.906
            -0.383         -6.981        30.918

Paramagnetic contribution to the shielding tensor (ppm): 
            -0.423         18.650        14.006
            -3.094        -11.280        -4.441
             1.471          6.593        -1.150

Total shielding tensor (ppm): 
            34.903         -0.755         2.045
            -1.986         23.856        -1.535
             1.087         -0.388        29.768


 Diagonalized sT*s matrix:
 
 sDSO            32.823           34.721           33.835  iso=      33.793
 sPSO            -9.231           -5.341            1.719  iso=      -4.284
        ---------------  ---------------  ---------------
 Total           23.593           29.380           35.554  iso=      29.509

 --------------
 Nucleus  31H :
 --------------

Diamagnetic contribution to the shielding tensor (ppm) : 
            45.469        -10.341        -7.176
            -2.960         40.142        -4.340
             0.262         -4.169        46.020

Paramagnetic contribution to the shielding tensor (ppm): 
           -17.201         11.729        10.412
             1.926        -10.757         3.679
             0.506          3.025       -14.309

Total shielding tensor (ppm): 
            28.268          1.389         3.236
            -1.034         29.385        -0.661
             0.769         -1.144        31.711


 Diagonalized sT*s matrix:
 
 sDSO            49.694           35.976           45.961  iso=      43.877
 sPSO           -22.482           -6.619          -13.166  iso=     -14.089
        ---------------  ---------------  ---------------
 Total           27.212           29.357           32.795  iso=      29.788

 --------------
 Nucleus  32H :
 --------------

Diamagnetic contribution to the shielding tensor (ppm) : 
            43.269         -0.569       -11.428
             2.958         39.361        -7.456
            -0.752          0.522        33.712

Paramagnetic contribution to the shielding tensor (ppm): 
            -9.602          6.200        10.080
             0.653         -8.830         9.101
            -0.714         -0.068        -8.876

Total shielding tensor (ppm): 
            33.667          5.631        -1.348
             3.611         30.531         1.645
            -1.466          0.454        24.836


 Diagonalized sT*s matrix:
 
 sDSO            33.952           38.807           43.582  iso=      38.780
 sPSO            -9.995          -10.730           -6.582  iso=      -9.102
        ---------------  ---------------  ---------------
 Total           23.957           28.077           37.000  iso=      29.678

 --------------
 Nucleus  33H :
 --------------

Diamagnetic contribution to the shielding tensor (ppm) : 
            28.752         -6.409       -22.814
             1.023         25.738        -1.722
            -6.222          6.838        37.828

Paramagnetic contribution to the shielding tensor (ppm): 
             3.514          8.841        16.876
             0.775          4.143         2.328
            -1.358         -7.015       -10.294

Total shielding tensor (ppm): 
            32.266          2.432        -5.938
             1.799         29.880         0.605
            -7.580         -0.178        27.535


 Diagonalized sT*s matrix:
 
 sDSO            20.912           29.038           42.368  iso=      30.773
 sPSO             1.559            0.767           -4.963  iso=      -0.879
        ---------------  ---------------  ---------------
 Total           22.472           29.804           37.405  iso=      29.894

 --------------
 Nucleus  34H :
 --------------

Diamagnetic contribution to the shielding tensor (ppm) : 
            30.205        -10.389        -8.887
            -1.345         29.365         1.655
             6.432          7.293        42.364

Paramagnetic contribution to the shielding tensor (ppm): 
             0.481         13.295         8.001
             0.822         -0.255        -1.434
            -3.612         -7.462       -10.854

Total shielding tensor (ppm): 
            30.686          2.906        -0.886
            -0.523         29.110         0.221
             2.820         -0.168        31.509


 Diagonalized sT*s matrix:
 
 sDSO            36.676           30.034           35.223  iso=      33.978
 sPSO            -8.270            0.553           -2.911  iso=      -3.543
        ---------------  ---------------  ---------------
 Total           28.406           30.587           32.312  iso=      30.435

 --------------
 Nucleus  35C :
 --------------

Diamagnetic contribution to the shielding tensor (ppm) : 
           202.749        -30.310       -37.944
            -4.331        234.679        19.500
             6.378         14.653       227.110

Paramagnetic contribution to the shielding tensor (ppm): 
           -72.947         30.241        45.508
             6.262        -86.276       -18.790
             4.518        -18.764       -77.168

Total shielding tensor (ppm): 
           129.802         -0.070         7.564
             1.931        148.403         0.711
            10.896         -4.111       149.943


 Diagonalized sT*s matrix:
 
 sDSO           220.029          234.309          210.200  iso=     221.513
 sPSO           -93.915          -86.098          -56.377  iso=     -78.797
        ---------------  ---------------  ---------------
 Total          126.114          148.212          153.822  iso=     142.716

 --------------
 Nucleus  36H :
 --------------

Diamagnetic contribution to the shielding tensor (ppm) : 
            11.394         19.203        12.029
            16.341         25.870         4.407
             9.564          2.695        19.194

Paramagnetic contribution to the shielding tensor (ppm): 
            18.927        -14.649       -11.456
           -11.610          4.062        -3.671
            -8.138         -1.023         8.364

Total shielding tensor (ppm): 
            30.321          4.554         0.573
             4.731         29.932         0.736
             1.426          1.671        27.558


 Diagonalized sT*s matrix:
 
 sDSO             2.534           14.562           39.363  iso=      18.819
 sPSO            22.929           12.694           -4.269  iso=      10.451
        ---------------  ---------------  ---------------
 Total           25.463           27.255           35.093  iso=      29.270

 --------------
 Nucleus  37H :
 --------------

Diamagnetic contribution to the shielding tensor (ppm) : 
            21.107        -16.912       -27.228
            -0.582         29.622        11.050
            -6.404          8.225        27.790

Paramagnetic contribution to the shielding tensor (ppm): 
            12.067         14.783        23.982
            -2.086         -0.871        -9.791
             3.199         -6.647        -1.651

Total shielding tensor (ppm): 
            33.174         -2.129        -3.246
            -2.668         28.751         1.259
            -3.205          1.577        26.140


 Diagonalized sT*s matrix:
 
 sDSO            15.282           21.881           41.356  iso=      26.173
 sPSO             9.537            5.819           -5.811  iso=       3.182
        ---------------  ---------------  ---------------
 Total           24.820           27.700           35.545  iso=      29.355



--------------------------------
CHEMICAL SHIELDING SUMMARY (ppm)
--------------------------------


  Nucleus  Element    Isotropic     Anisotropy
  -------  -------  ------------   ------------
      0       C           28.307        196.504 
      1       C           45.378        121.509 
      2       C           42.306        142.786 
      3       C           22.176        205.398 
      4       C           41.917        100.874 
      5       C           24.101        205.015 
      6       C          135.556         17.890 
      7       C          137.906         21.247 
      8       C          138.048         22.547 
      9       C          150.198         18.210 
     10       C          144.321         35.192 
     11       C          137.512         26.272 
     12       C          140.376         20.010 
     13       C          144.265         17.940 
     14       C          154.776         25.598 
     15       H           24.555          5.560 
     16       H           24.024          7.060 
     17       H           24.503          5.473 
     18       H           28.295          8.237 
     19       H           29.395          8.109 
     20       H           29.114          6.000 
     21       H           28.166          8.308 
     22       H           28.391          8.229 
     23       H           29.857          5.320 
     24       H           29.732         11.635 
     25       H           29.791          9.921 
     26       H           30.287          2.965 
     27       H           29.396          9.690 
     28       H           28.988          4.259 
     29       H           30.060          8.260 
     30       H           29.509          9.068 
     31       H           29.788          4.510 
     32       H           29.678         10.983 
     33       H           29.894         11.267 
     34       H           30.435          2.816 
     35       C          142.716         16.660 
     36       H           29.270          8.734 
     37       H           29.355          9.285 



Maximum memory used throughout the entire EPRNMR-calculation: 638.0 MB

Timings for individual modules:

Sum of individual times         ...      344.935 sec (=   5.749 min)
GTO integral calculation        ...        1.491 sec (=   0.025 min)   0.4 %
SCF iterations                  ...      166.655 sec (=   2.778 min)  48.3 %
EPR/NMR calculation             ...      176.789 sec (=   2.946 min)  51.3 %
                             ****ORCA TERMINATED NORMALLY****
TOTAL RUN TIME: 0 days 0 hours 5 minutes 45 seconds 551 msec
