
                                 *****************
                                 * O   R   C   A *
                                 *****************

                                            #,                                       
                                            ###                                      
                                            ####                                     
                                            #####                                    
                                            ######                                   
                                           ########,                                 
                                     ,,################,,,,,                         
                               ,,#################################,,                 
                          ,,##########################################,,             
                       ,#########################################, ''#####,          
                    ,#############################################,,   '####,        
                  ,##################################################,,,,####,       
                ,###########''''           ''''###############################       
              ,#####''   ,,,,##########,,,,          '''####'''          '####       
            ,##' ,,,,###########################,,,                        '##       
           ' ,,###''''                  '''############,,,                           
         ,,##''                                '''############,,,,        ,,,,,,###''
      ,#''                                            '''#######################'''  
     '                                                          ''''####''''         
             ,#######,   #######,   ,#######,      ##                                
            ,#'     '#,  ##    ##  ,#'     '#,    #''#        ######   ,####,        
            ##       ##  ##   ,#'  ##            #'  '#       #        #'  '#        
            ##       ##  #######   ##           ,######,      #####,   #    #        
            '#,     ,#'  ##    ##  '#,     ,#' ,#      #,         ##   #,  ,#        
             '#######'   ##     ##  '#######'  #'      '#     #####' # '####'        



                  #######################################################
                  #                        -***-                        #
                  #          Department of theory and spectroscopy      #
                  #    Directorship and core code : Frank Neese         #
                  #        Max Planck Institute fuer Kohlenforschung    #
                  #                Kaiser Wilhelm Platz 1               #
                  #                 D-45470 Muelheim/Ruhr               #
                  #                      Germany                        #
                  #                                                     #
                  #                  All rights reserved                #
                  #                        -***-                        #
                  #######################################################


                         Program Version 5.0.2 -  RELEASE  -


 With contributions from (in alphabetic order):
   Daniel Aravena         : Magnetic Suceptibility
   Michael Atanasov       : Ab Initio Ligand Field Theory (pilot matlab implementation)
   Alexander A. Auer      : GIAO ZORA, VPT2 properties, NMR spectrum
   Ute Becker             : Parallelization
   Giovanni Bistoni       : ED, misc. LED, open-shell LED, HFLD
   Martin Brehm           : Molecular dynamics
   Dmytro Bykov           : SCF Hessian
   Vijay G. Chilkuri      : MRCI spin determinant printing, contributions to CSF-ICE
   Dipayan Datta          : RHF DLPNO-CCSD density
   Achintya Kumar Dutta   : EOM-CC, STEOM-CC
   Dmitry Ganyushin       : Spin-Orbit,Spin-Spin,Magnetic field MRCI
   Miquel Garcia          : C-PCM and meta-GGA Hessian, CC/C-PCM, Gaussian charge scheme
   Yang Guo               : DLPNO-NEVPT2, F12-NEVPT2, CIM, IAO-localization
   Andreas Hansen         : Spin unrestricted coupled pair/coupled cluster methods
   Benjamin Helmich-Paris : MC-RPA, TRAH-SCF, COSX integrals
   Lee Huntington         : MR-EOM, pCC
   Robert Izsak           : Overlap fitted RIJCOSX, COSX-SCS-MP3, EOM
   Marcus Kettner         : VPT2
   Christian Kollmar      : KDIIS, OOCD, Brueckner-CCSD(T), CCSD density, CASPT2, CASPT2-K
   Simone Kossmann        : Meta GGA functionals, TD-DFT gradient, OOMP2, MP2 Hessian
   Martin Krupicka        : Initial AUTO-CI
   Lucas Lang             : DCDCAS
   Marvin Lechner         : AUTO-CI (C++ implementation), FIC-MRCC
   Dagmar Lenk            : GEPOL surface, SMD
   Dimitrios Liakos       : Extrapolation schemes; Compound Job, initial MDCI parallelization
   Dimitrios Manganas     : Further ROCIS development; embedding schemes
   Dimitrios Pantazis     : SARC Basis sets
   Anastasios Papadopoulos: AUTO-CI, single reference methods and gradients
   Taras Petrenko         : DFT Hessian,TD-DFT gradient, ASA, ECA, R-Raman, ABS, FL, XAS/XES, NRVS
   Peter Pinski           : DLPNO-MP2, DLPNO-MP2 Gradient
   Christoph Reimann      : Effective Core Potentials
   Marius Retegan         : Local ZFS, SOC
   Christoph Riplinger    : Optimizer, TS searches, QM/MM, DLPNO-CCSD(T), (RO)-DLPNO pert. Triples
   Tobias Risthaus        : Range-separated hybrids, TD-DFT gradient, RPA, STAB
   Michael Roemelt        : Original ROCIS implementation
   Masaaki Saitow         : Open-shell DLPNO-CCSD energy and density
   Barbara Sandhoefer     : DKH picture change effects
   Avijit Sen             : IP-ROCIS
   Kantharuban Sivalingam : CASSCF convergence, NEVPT2, FIC-MRCI
   Bernardo de Souza      : ESD, SOC TD-DFT
   Georgi Stoychev        : AutoAux, RI-MP2 NMR, DLPNO-MP2 response
   Willem Van den Heuvel  : Paramagnetic NMR
   Boris Wezisla          : Elementary symmetry handling
   Frank Wennmohs         : Technical directorship


 We gratefully acknowledge several colleagues who have allowed us to
 interface, adapt or use parts of their codes:
   Stefan Grimme, W. Hujo, H. Kruse, P. Pracht,  : VdW corrections, initial TS optimization,
                  C. Bannwarth, S. Ehlert          DFT functionals, gCP, sTDA/sTD-DF
   Ed Valeev, F. Pavosevic, A. Kumar             : LibInt (2-el integral package), F12 methods
   Garnet Chan, S. Sharma, J. Yang, R. Olivares  : DMRG
   Ulf Ekstrom                                   : XCFun DFT Library
   Mihaly Kallay                                 : mrcc  (arbitrary order and MRCC methods)
   Jiri Pittner, Ondrej Demel                    : Mk-CCSD
   Frank Weinhold                                : gennbo (NPA and NBO analysis)
   Christopher J. Cramer and Donald G. Truhlar   : smd solvation model
   Lars Goerigk                                  : TD-DFT with DH, B97 family of functionals
   V. Asgeirsson, H. Jonsson                     : NEB implementation
   FAccTs GmbH                                   : IRC, NEB, NEB-TS, DLPNO-Multilevel, CI-OPT
                                                   MM, QMMM, 2- and 3-layer-ONIOM, Crystal-QMMM,
                                                   LR-CPCM, SF, NACMEs, symmetry and pop. for TD-DFT,
                                                   nearIR, NL-DFT gradient (VV10), updates on ESD,
                                                   ML-optimized integration grids
   S Lehtola, MJT Oliveira, MAL Marques          : LibXC Library
   Liviu Ungur et al                             : ANISO software


 Your calculation uses the libint2 library for the computation of 2-el integrals
 For citations please refer to: http://libint.valeyev.net

 Your ORCA version has been built with support for libXC version: 5.1.0
 For citations please refer to: https://tddft.org/programs/libxc/

 This ORCA versions uses:
   CBLAS   interface :  Fast vector & matrix operations
   LAPACKE interface :  Fast linear algebra routines
   SCALAPACK package :  Parallel linear algebra routines
   Shared memory     :  Shared parallel matrices
   BLAS/LAPACK       :  OpenBLAS 0.3.15  USE64BITINT DYNAMIC_ARCH NO_AFFINITY Haswell SINGLE_THREADED
        Core in use  :  Haswell
   Copyright (c) 2011-2014, The OpenBLAS Project


================================================================================

----- Orbital basis set information -----
Your calculation utilizes the basis: def2-TZVP
   F. Weigend and R. Ahlrichs, Phys. Chem. Chem. Phys. 7, 3297 (2005).

================================================================================
                                        WARNINGS
                       Please study these warnings very carefully!
================================================================================


INFO   : the flag for use of the SHARK integral package has been found!

================================================================================
                                       INPUT FILE
================================================================================
NAME = CASSCF.in
|  1> ! RHF def2-TZVP TightSCF Conv
|  2> 
|  3> %casscf
|  4>   nel 5
|  5>   norb 5
|  6>   switchstep nr
|  7> end
|  8> 
|  9> * xyz 0 2
| 10> F 0 0 0
| 11> **                         ****END OF INPUT****
================================================================================

                       ****************************
                       * Single Point Calculation *
                       ****************************

---------------------------------
CARTESIAN COORDINATES (ANGSTROEM)
---------------------------------
  F      0.000000    0.000000    0.000000

----------------------------
CARTESIAN COORDINATES (A.U.)
----------------------------
  NO LB      ZA    FRAG     MASS         X           Y           Z
   0 F     9.0000    0    18.998    0.000000    0.000000    0.000000

--------------------------------
INTERNAL COORDINATES (ANGSTROEM)
--------------------------------
 F      0   0   0     0.000000000000     0.00000000     0.00000000

---------------------------
INTERNAL COORDINATES (A.U.)
---------------------------
 F      0   0   0     0.000000000000     0.00000000     0.00000000

---------------------
BASIS SET INFORMATION
---------------------
There are 1 groups of distinct atoms

 Group   1 Type F   : 11s6p2d1f contracted to 5s3p2d1f pattern {62111/411/11/1}

Atom   0F    basis set group =>   1
------------------------------------------------------------------------------
                           ORCA GTO INTEGRAL CALCULATION
------------------------------------------------------------------------------
------------------------------------------------------------------------------
                   ___                                                        
                  /   \      - P O W E R E D   B Y -                         
                 /     \                                                     
                 |  |  |   _    _      __       _____    __    __             
                 |  |  |  | |  | |    /  \     |  _  \  |  |  /  |          
                  \  \/   | |  | |   /    \    | | | |  |  | /  /          
                 / \  \   | |__| |  /  /\  \   | |_| |  |  |/  /          
                |  |  |   |  __  | /  /__\  \  |    /   |      \           
                |  |  |   | |  | | |   __   |  |    \   |  |\   \          
                \     /   | |  | | |  |  |  |  | |\  \  |  | \   \       
                 \___/    |_|  |_| |__|  |__|  |_| \__\ |__|  \__/        
                                                                              
                      - O R C A' S   B I G   F R I E N D -                    
                                      &                                       
                       - I N T E G R A L  F E E D E R -                       
                                                                              
 v1 FN, 2020, v2 2021                                                         
------------------------------------------------------------------------------


Reading SHARK input file CASSCF.SHARKINP.tmp ... ok
----------------------
SHARK INTEGRAL PACKAGE
----------------------

Number of atoms                             ...      1
Number of basis functions                   ...     31
Number of shells                            ...     11
Maximum angular momentum                    ...      3
Integral batch strategy                     ... SHARK/LIBINT Hybrid
RI-J (if used) integral strategy            ... SPLIT-RIJ (Revised 2003 algorithm where possible)
Printlevel                                  ...      1
Contraction scheme used                     ... SEGMENTED contraction
Coulomb Range Separation                    ... NOT USED
Exchange Range Separation                   ... NOT USED
Finite Nucleus Model                        ... NOT USED
Auxiliary Coulomb fitting basis             ... NOT available
Auxiliary J/K fitting basis                 ... NOT available
Auxiliary Correlation fitting basis         ... NOT available
Auxiliary 'external' fitting basis          ... NOT available
Integral threshold                          ...     2.500000e-11
Primitive cut-off                           ...     2.500000e-12
Primitive pair pre-selection threshold      ...     2.500000e-12

Calculating pre-screening integrals         ... done (  0.0 sec) Dimension = 11
Organizing shell pair data                  ... done (  0.1 sec)
Shell pair information
Total number of shell pairs                 ...        66
Shell pairs after pre-screening             ...        66
Total number of primitive shell pairs       ...       232
Primitive shell pairs kept                  ...       232
          la=0 lb=0:     15 shell pairs
          la=1 lb=0:     15 shell pairs
          la=1 lb=1:      6 shell pairs
          la=2 lb=0:     10 shell pairs
          la=2 lb=1:      6 shell pairs
          la=2 lb=2:      3 shell pairs
          la=3 lb=0:      5 shell pairs
          la=3 lb=1:      3 shell pairs
          la=3 lb=2:      2 shell pairs
          la=3 lb=3:      1 shell pairs

Calculating one electron integrals          ... done (  0.0 sec)
Calculating Nuclear repulsion               ... done (  0.1 sec) ENN=      0.000000000000 Eh
Calculating 4-index integrals               ... 
    -> SHARK/Ints2Disk: Thresh =     2.500000e-11 TCut=    2.500000e-12 
    -> calling libint FockFlag=2 Lmax_loc=3
    -> L=0 0 1 3:     0.000 sec done=        45 (=100.0%) skipped=         0 
    -> L=0 1 0 3:     0.000 sec done=        75 (=100.0%) skipped=         0 
    -> L=0 1 1 3:     0.001 sec done=        45 (=100.0%) skipped=         0 
    -> L=0 1 2 2:     0.000 sec done=        45 (=100.0%) skipped=         0 
    -> L=0 1 3 3:     0.000 sec done=        15 (=100.0%) skipped=         0 
    -> L=0 2 0 3:     0.000 sec done=        50 (=100.0%) skipped=         0 
    -> L=0 2 1 3:     0.000 sec done=        30 (=100.0%) skipped=         0 
    -> L=0 2 2 2:     0.000 sec done=        30 (=100.0%) skipped=         0 
    -> L=0 3 0 3:     0.000 sec done=        15 (=100.0%) skipped=         0 
    -> L=0 3 1 1:     0.001 sec done=        30 (=100.0%) skipped=         0 
    -> L=0 3 1 2:     0.001 sec done=        30 (=100.0%) skipped=         0 
    -> L=0 3 1 3:     0.001 sec done=        15 (=100.0%) skipped=         0 
    -> L=0 3 2 2:     0.000 sec done=        15 (=100.0%) skipped=         0 
    -> L=1 1 1 2:     0.001 sec done=        36 (=100.0%) skipped=         0 
    -> L=1 1 1 3:     0.000 sec done=        18 (=100.0%) skipped=         0 
    -> L=1 1 2 2:     0.001 sec done=        18 (=100.0%) skipped=         0 
    -> L=1 2 1 2:     0.001 sec done=        21 (=100.0%) skipped=         0 
    -> L=1 2 1 3:     0.001 sec done=        18 (=100.0%) skipped=         0 
    -> L=1 2 2 2:     0.001 sec done=        18 (=100.0%) skipped=         0 
    -> L=1 3 1 3:     0.000 sec done=         6 (=100.0%) skipped=         0 
    -> L=1 3 2 2:     0.000 sec done=         9 (=100.0%) skipped=         0 
    -> L=2 2 2 2:     0.000 sec done=         6 (=100.0%) skipped=         0 
    ->Total LIBINT loop time =    0.355 sec
    -> L=0 0 0 0:     0.000 sec done=       120 (=100.0%) skipped=         0 
    -> L=1 0 0 0:     0.000 sec done=       225 (=100.0%) skipped=         0 
    -> L=1 0 1 0:     0.000 sec done=       120 (=100.0%) skipped=         0 
    -> L=1 1 0 0:     0.000 sec done=        90 (=100.0%) skipped=         0 
    -> L=1 1 1 0:     0.001 sec done=        90 (=100.0%) skipped=         0 
    -> L=1 1 1 1:     0.000 sec done=        21 (=100.0%) skipped=         0 
    -> L=2 0 0 0:     0.000 sec done=       150 (=100.0%) skipped=         0 
    -> L=2 0 1 0:     0.000 sec done=       150 (=100.0%) skipped=         0 
    -> L=2 0 1 1:     0.001 sec done=        60 (=100.0%) skipped=         0 
    -> L=2 0 2 0:     0.000 sec done=        55 (=100.0%) skipped=         0 
    -> L=2 1 0 0:     0.000 sec done=        90 (=100.0%) skipped=         0 
    -> L=2 1 1 0:     0.001 sec done=        90 (=100.0%) skipped=         0 
    -> L=2 1 2 0:     0.001 sec done=        60 (=100.0%) skipped=         0 
    -> L=2 2 0 0:     0.000 sec done=        45 (=100.0%) skipped=         0 
    -> L=3 0 0 0:     0.000 sec done=        75 (=100.0%) skipped=         0 
    -> L=3 2 0 0:     0.000 sec done=        30 (=100.0%) skipped=         0 
    -> L=3 2 1 0:     0.001 sec done=        30 (=100.0%) skipped=         0 
    -> L=3 2 1 1:     0.000 sec done=        12 (=100.0%) skipped=         0 
    -> L=3 2 2 0:     0.000 sec done=        20 (=100.0%) skipped=         0 
    -> L=3 2 2 1:     0.001 sec done=        12 (=100.0%) skipped=         0 
    -> L=3 2 2 2:     0.000 sec done=         6 (=100.0%) skipped=         0 
    -> L=3 2 3 0:     0.001 sec done=        10 (=100.0%) skipped=         0 
    -> L=3 2 3 1:     0.001 sec done=         6 (=100.0%) skipped=         0 
    -> L=3 2 3 2:     0.001 sec done=         3 (=100.0%) skipped=         0 
    -> L=3 3 0 0:     0.001 sec done=        15 (=100.0%) skipped=         0 
    -> L=3 3 1 1:     0.001 sec done=         6 (=100.0%) skipped=         0 
    -> L=3 3 2 0:     0.001 sec done=        10 (=100.0%) skipped=         0 
    -> L=3 3 2 1:     0.001 sec done=         6 (=100.0%) skipped=         0 
    -> L=3 3 2 2:     0.001 sec done=         3 (=100.0%) skipped=         0 
    -> L=3 3 3 0:     0.000 sec done=         5 (=100.0%) skipped=         0 
    -> L=3 3 3 1:     0.000 sec done=         3 (=100.0%) skipped=         0 
    -> L=3 3 3 2:     0.000 sec done=         2 (=100.0%) skipped=         0 
    -> L=3 3 3 3:     0.000 sec done=         1 (=100.0%) skipped=         0 
    ->Total SHARK integral loop time =    0.600 sec
    -> Total Integral generation matrix time =    1.279 sec
    -> Number of small integrals   =         0
    -> Number of medium integrals  =         0
    -> Number of large integrals   =     13219
    -> Number of MB stored         =         0 MB


SHARK setup successfully completed in   1.9 seconds

Maximum memory used throughout the entire GTOINT-calculation: 36.7 MB
-------------------------------------------------------------------------------
                                 ORCA SCF
-------------------------------------------------------------------------------

------------
SCF SETTINGS
------------
Hamiltonian:
 Ab initio Hamiltonian  Method          .... Hartree-Fock(GTOs)


General Settings:
 Integral files         IntName         .... CASSCF
 Hartree-Fock type      HFTyp           .... CASSCF
 Total Charge           Charge          ....    0
 Multiplicity           Mult            ....    2
 Number of Electrons    NEL             ....    9
 Basis Dimension        Dim             ....   31
 Nuclear Repulsion      ENuc            ....      0.0000000000 Eh


Diagonalization of the overlap matrix:
Smallest eigenvalue                        ... 3.088e-02
Time for diagonalization                   ...    0.001 sec
Threshold for overlap eigenvalues          ... 1.000e-08
Number of eigenvalues below threshold      ... 0
Time for construction of square roots      ...    0.109 sec
Total time needed                          ...    0.127 sec

Time for model grid setup =    0.070 sec

------------------------------
INITIAL GUESS: MODEL POTENTIAL
------------------------------
Loading Hartree-Fock densities                     ... done
Calculating cut-offs                               ... done
Initializing the effective Hamiltonian             ... done
Setting up the integral package (SHARK)            ... done
Starting the Coulomb interaction                   ... done (   0.2 sec)
Reading the grid                                   ... done
Mapping shells                                     ... done
Starting the XC term evaluation                    ... done (   0.0 sec)
Transforming the Hamiltonian                       ... done (   0.0 sec)
Diagonalizing the Hamiltonian                      ... done (   0.0 sec)
Back transforming the eigenvectors                 ... done (   0.0 sec)
Now organizing SCF variables                       ... done
                      ------------------
                      INITIAL GUESS DONE (   0.3 sec)
                      ------------------


 ... the calculation is a CASSCF calculation -I'm leaving here GOOD LUCK!!!

-------------------------------------------------------------------------------
                              ORCA-CASSCF
-------------------------------------------------------------------------------

Setting up the integral package       ... done
Building the CAS space                ... done (51 configurations for Mult=2)

SYSTEM-SPECIFIC SETTINGS:
Number of active electrons          ...    5
Number of active orbitals           ...    5
Total number of electrons           ...    9
Total number of orbitals            ...   31

Determined orbital ranges:
   Internal       0 -    1 (   2 orbitals)
   Active         2 -    6 (   5 orbitals)
   External       7 -   30 (  24 orbitals)
Number of rotation parameters      ...    178

CI-STEP:
CI strategy                         ... General CI
Number of multiplicity blocks       ...    1
BLOCK  1 WEIGHT=   1.0000
  Multiplicity                      ...    2
  #(Configurations)                 ...   51
  #(CSFs)                           ...   75
  #(Roots)                          ...    1
    ROOT=0 WEIGHT=    1.000000

  PrintLevel                        ...    1
  N(GuessMat)                       ...       512
  MaxDim(CI)                        ...        10
  MaxIter(CI)                       ...        64
  Energy Tolerance CI               ...  2.50e-09
  Residual Tolerance CI             ...  2.50e-09
  Shift(CI)                         ...  1.00e-04

INTEGRAL-TRANSFORMATION-STEP:
  Algorithm                         ... EXACT

ORBITAL-IMPROVEMENT-STEP:
  Algorithm                         ... SuperCI(PT)
  Default Parametrization           ... CAYLEY
  Act-Act rotations                 ... depends on algorithm used
  FreezeIE                          ... 95.00% of ||g||
  Until reaching FreezeIE rotations with active orbitals are damped. 

  Approx. Fock at                   ... 0.000000e+00 density convergence
  Level shift                       ... energy gap dependent. Minimum=0.600

  Note: SuperCI(PT) will ignore FreezeIE, FreezeAct and FreezeGrad. In general Default settings are encouraged.
        In conjunction with ShiftUp, ShiftDn or GradScaling the performance of SuperCI(PT) is less optimal.  

  MaxRot                            ... 2.00e-01 
  Max. no of vectors (DIIS)         ... 15
  DThresh (cut-off) metric          ... 1.00e-06
  Switch step at gradient           ...  3.00e-02 
  Switch step at iteration          ...        50   
  Switch step to                    ... NR    

  Newton-Raphson/Augmented Hessian solver details:
  Solver                            ... 0
  Tol                               ... 1.0e-06
  Max. no of iterations             ... 35
  PrintLevel                        ... 1
  N(GuessMat)                       ... 512
  ExactDiagSwitch                   ... 512
  Diagonal Hessian Shift            ... 0.000e+00
  Secular equation safety shift     ... 1.000e-04
  Denominator shift in update       ... 1.000e-04
  Cutoff for Hessian matrix storage ... 2.500e-11
  Max. memory for integral trafo    ... 1024
  Max. no of expansion vectors      ... 35
  Max. DIIS vectors                 ... 12
  Preconditioner                    ... CASSCF-FOCKIAN
  SubMatrix initial guess+update    ... ON


SCF-SETTINGS:
  Incremental                       ... off
  RIJCOSX approximation             ... off
  RI-JK approximation               ... off
  AO integral handling              ... CONVENTIONAL
  Integral Neglect Thresh           ...  2.50e-11
  Primitive cutoff TCut             ...  2.50e-12
  Energy convergence tolerance      ...  2.50e-08
  Orbital gradient convergence      ...  2.50e-04
  Max. number of iterations         ...        75  


FINAL ORBITALS:
  Active   Orbitals                 ... natural 
  Internal Orbitals                 ... canonical 
  External Orbitals                 ... canonical 

------------------
CAS-SCF ITERATIONS
------------------


MACRO-ITERATION   1: 
   --- Inactive Energy E0 = -87.40657785 Eh
CI-ITERATION   0: 
   -99.400853753   0.000000000000 (    0.03)
   CI-PROBLEM SOLVED
   DENSITIES MADE

                 <<<<<<<<<<<<<<<<<<INITIAL CI STATE CHECK>>>>>>>>>>>>>>>>>>

BLOCK  1 MULT= 2 NROOTS= 1 
ROOT   0:  E=     -99.4008537526 Eh
      0.99602 [     0]: 22100

                 <<<<<<<<<<<<<<<<<<INITIAL CI STATE CHECK>>>>>>>>>>>>>>>>>>

   E(CAS)=   -99.400853753 Eh DE=    0.000000e+00
   --- Energy gap subspaces: Ext-Act = 0.003   Act-Int = 0.862
   --- current l-shift: Up(Ext-Act) = 1.60   Dn(Act-Int) = 1.00
   N(occ)=  1.99414 1.99962 1.00080 0.00061 0.00483
   ||g|| =     1.153531e+00 Max(G)=    8.053816e-01 Rot=30,0
   --- Orbital Update [SuperCI(PT)]
   --- Canonicalize Internal Space
   --- Canonicalize External Space
   --- SX_PT (Skipped TA=0 IT=0): ||X|| =      0.562231160 Max(X)(14,6) =      0.386866575 
   --- SFit(Active Orbitals)

MACRO-ITERATION   2: 
   --- Inactive Energy E0 = -87.45958806 Eh
CI-ITERATION   0: 
   -99.417118368   0.000000000000 (    0.01)
   CI-PROBLEM SOLVED
   DENSITIES MADE
   E(CAS)=   -99.417118368 Eh DE=   -1.626462e-02
   --- Energy gap subspaces: Ext-Act = -0.312   Act-Int = 0.866
   --- current l-shift: Up(Ext-Act) = 1.41   Dn(Act-Int) = 0.50
   N(occ)=  1.99141 1.99924 1.00064 0.00111 0.00760
   ||g|| =     1.149898e-01 Max(G)=    6.603868e-02 Rot=5,0
   --- Orbital Update [SuperCI(PT)]
   --- Canonicalize Internal Space
   --- Canonicalize External Space
   --- SX_PT (Skipped TA=0 IT=0): ||X|| =      0.311742653 Max(X)(17,5) =     -0.212959977 
   --- SFit(Active Orbitals)

MACRO-ITERATION   3: 
   --- Inactive Energy E0 = -87.46085758 Eh
CI-ITERATION   0: 
   -99.420856346   0.000000000000 (    0.03)
   CI-PROBLEM SOLVED
   DENSITIES MADE
   E(CAS)=   -99.420856346 Eh DE=   -3.737977e-03
   --- Energy gap subspaces: Ext-Act = -0.994   Act-Int = 0.866
   --- current l-shift: Up(Ext-Act) = 1.93   Dn(Act-Int) = 0.33
   N(occ)=  1.99153 1.99913 1.00061 0.00112 0.00761
   ||g|| =     2.792505e-02 Max(G)=   -1.800574e-02 Rot=5,0
   --- Orbital Update [SuperCI(PT)]
   --- Canonicalize Internal Space
   --- Canonicalize External Space
   --- SX_PT (Skipped TA=0 IT=0): ||X|| =      0.149075497 Max(X)(12,5) =      0.087179646 
   --- SFit(Active Orbitals)

MACRO-ITERATION   4: 
   ===>>> Convergence to 3.0e-02 achieved - switching to Step=NR
   --- Inactive Energy E0 = -87.45903624 Eh
CI-ITERATION   0: 
   -99.421454089   0.000000000000 (    0.06)
   CI-PROBLEM SOLVED
   DENSITIES MADE
   E(CAS)=   -99.421454089 Eh DE=   -5.977431e-04
   --- Energy gap subspaces: Ext-Act = -1.467   Act-Int = 0.866
   --- current l-shift: Up(Ext-Act) = 2.07   Dn(Act-Int) = 0.00
   N(occ)=  1.99210 1.99900 1.00061 0.00110 0.00720
   ||g|| =     8.202583e-03 Max(G)=    2.888890e-03 Rot=17,0
   --- Orbital Update [        NR]
Warning:  NEGATIVE diagonal element D(7,5)=    -0.001229
Warning:  NEGATIVE diagonal element D(15,5)=    -0.000519
   Warning: offending negative eigenvalue - following it
   Warning: offending negative eigenvalue - following it
   Warning: offending negative eigenvalue - following it
   --- SFit(Active Orbitals)

MACRO-ITERATION   5: 
   --- Inactive Energy E0 = -87.45913880 Eh
CI-ITERATION   0: 
   -99.421936386   0.000000000000 (    0.04)
   CI-PROBLEM SOLVED
   DENSITIES MADE
   E(CAS)=   -99.421936386 Eh DE=   -4.822969e-04
   --- Energy gap subspaces: Ext-Act = -1.743   Act-Int = 0.866
   --- current l-shift: Up(Ext-Act) = 2.34   Dn(Act-Int) = 0.00
   N(occ)=  1.99225 1.99885 1.00061 0.00118 0.00711
   ||g|| =     4.083982e-03 Max(G)=    2.467281e-03 Rot=25,5
   --- Orbital Update [        NR]
   AugHess TrustRadius-Update: Energy-Ratio   0.270 	 TrustRadius 1.000
Warning:  NEGATIVE diagonal element D(7,5)=    -0.000655
   Warning: offending negative eigenvalue - following it
   --- SFit(Active Orbitals)

MACRO-ITERATION   6: 
   --- Inactive Energy E0 = -86.76573895 Eh
CI-ITERATION   0: 
   -99.443068049   0.000000000000 (    0.05)
   CI-PROBLEM SOLVED
   DENSITIES MADE
   E(CAS)=   -99.443068049 Eh DE=   -2.113166e-02
   --- Energy gap subspaces: Ext-Act = -1.231   Act-Int = 0.313
   --- current l-shift: Up(Ext-Act) = 1.83   Dn(Act-Int) = 0.29
   N(occ)=  1.99027 1.99335 1.00060 0.00662 0.00916
   ||g|| =     5.249246e-02 Max(G)=    2.307018e-02 Rot=15,3
   --- Orbital Update [        NR]
   AugHess TrustRadius-Update: Energy-Ratio   1.654 	 TrustRadius 0.500
   --- SFit(Active Orbitals)

MACRO-ITERATION   7: 
   --- Inactive Energy E0 = -86.98263995 Eh
CI-ITERATION   0: 
   -99.449536823   0.000000000000 (    0.04)
   CI-PROBLEM SOLVED
   DENSITIES MADE
   E(CAS)=   -99.449536823 Eh DE=   -6.468774e-03
   --- Energy gap subspaces: Ext-Act = -0.286   Act-Int = 0.490
   --- current l-shift: Up(Ext-Act) = 0.89   Dn(Act-Int) = 0.11
   N(occ)=  1.98974 1.99050 1.00060 0.00947 0.00969
   ||g|| =     2.221175e-02 Max(G)=    1.416945e-02 Rot=15,3
   --- Orbital Update [        NR]
   AugHess TrustRadius-Update: Energy-Ratio   1.310 	 TrustRadius 0.250
   --- SFit(Active Orbitals)

MACRO-ITERATION   8: 
   --- Inactive Energy E0 = -87.14352937 Eh
CI-ITERATION   0: 
   -99.450094585   0.000000000000 (    0.10)
   CI-PROBLEM SOLVED
   DENSITIES MADE
   E(CAS)=   -99.450094585 Eh DE=   -5.577616e-04
   --- Energy gap subspaces: Ext-Act = 0.069   Act-Int = 0.624
   --- current l-shift: Up(Ext-Act) = 0.53   Dn(Act-Int) = 0.00
   N(occ)=  1.98935 1.98967 1.00060 0.01031 0.01006
   ||g|| =     1.088002e-02 Max(G)=    6.623721e-03 Rot=15,3
   --- Orbital Update [        NR]
   AugHess TrustRadius-Update: Energy-Ratio   1.272 	 TrustRadius 0.250
   --- SFit(Active Orbitals)

MACRO-ITERATION   9: 
   --- Inactive Energy E0 = -87.20241271 Eh
CI-ITERATION   0: 
   -99.450157539   0.000000000000 (    0.02)
   CI-PROBLEM SOLVED
   DENSITIES MADE
   E(CAS)=   -99.450157539 Eh DE=   -6.295419e-05
   --- Energy gap subspaces: Ext-Act = 0.193   Act-Int = 0.671
   --- current l-shift: Up(Ext-Act) = 0.41   Dn(Act-Int) = 0.00
   N(occ)=  1.98915 1.98941 1.00060 0.01058 0.01026
   ||g|| =     5.246916e-03 Max(G)=    2.894950e-03 Rot=15,3
   --- Orbital Update [        NR]
   AugHess TrustRadius-Update: Energy-Ratio   1.273 	 TrustRadius 0.250
   --- SFit(Active Orbitals)

MACRO-ITERATION  10: 
   --- Inactive Energy E0 = -87.21894797 Eh
CI-ITERATION   0: 
   -99.450163957   0.000000000000 (    0.10)
   CI-PROBLEM SOLVED
   DENSITIES MADE
   E(CAS)=   -99.450163957 Eh DE=   -6.417675e-06
   --- Energy gap subspaces: Ext-Act = 0.230   Act-Int = 0.684
   --- current l-shift: Up(Ext-Act) = 0.37   Dn(Act-Int) = 0.00
   N(occ)=  1.98908 1.98932 1.00060 0.01066 0.01033
   ||g|| =     2.374268e-03 Max(G)=    1.194009e-03 Rot=15,3
   --- Orbital Update [        NR]
   AugHess TrustRadius-Update: Energy-Ratio   1.306 	 TrustRadius 0.125
   --- SFit(Active Orbitals)

MACRO-ITERATION  11: 
   --- Inactive Energy E0 = -87.22249334 Eh
CI-ITERATION   0: 
   -99.450164679   0.000000000000 (    0.03)
   CI-PROBLEM SOLVED
   DENSITIES MADE
   E(CAS)=   -99.450164679 Eh DE=   -7.226683e-07
   --- Energy gap subspaces: Ext-Act = 0.240   Act-Int = 0.687
   --- current l-shift: Up(Ext-Act) = 0.36   Dn(Act-Int) = 0.00
   N(occ)=  1.98905 1.98930 1.00060 0.01069 0.01036
   ||g|| =     1.025699e-03 Max(G)=    4.862357e-04 Rot=15,3
   --- Orbital Update [        NR]
   AugHess TrustRadius-Update: Energy-Ratio   1.363 	 TrustRadius 0.062
   --- SFit(Active Orbitals)

MACRO-ITERATION  12: 
   --- Inactive Energy E0 = -87.22328816 Eh
CI-ITERATION   0: 
   -99.450164781   0.000000000000 (    0.02)
   CI-PROBLEM SOLVED
   DENSITIES MADE
   E(CAS)=   -99.450164781 Eh DE=   -1.015757e-07
   --- Energy gap subspaces: Ext-Act = 0.243   Act-Int = 0.687
   --- current l-shift: Up(Ext-Act) = 0.36   Dn(Act-Int) = 0.00
   N(occ)=  1.98904 1.98929 1.00060 0.01070 0.01037
   ||g|| =     4.286429e-04 Max(G)=   -2.114342e-04 Rot=14,2
   --- Orbital Update [        NR]
   AugHess TrustRadius-Update: Energy-Ratio   1.389 	 TrustRadius 0.031
   --- SFit(Active Orbitals)

MACRO-ITERATION  13: 
   --- Inactive Energy E0 = -87.22350798 Eh
CI-ITERATION   0: 
   -99.450164796   0.000000000000 (    0.02)
   CI-PROBLEM SOLVED
   DENSITIES MADE
   E(CAS)=   -99.450164796 Eh DE=   -1.559411e-08
   --- Energy gap subspaces: Ext-Act = 0.244   Act-Int = 0.687
   --- current l-shift: Up(Ext-Act) = 0.36   Dn(Act-Int) = 0.00
   N(occ)=  1.98904 1.98928 1.00060 0.01071 0.01037
   ||g|| =     1.754306e-04 Max(G)=   -8.985298e-05 Rot=14,2
                     ---- THE CAS-SCF ENERGY   HAS CONVERGED ----
                     ---- THE CAS-SCF GRADIENT HAS CONVERGED ----
                            --- FINALIZING ORBITALS ---
                    ---- DOING ONE FINAL ITERATION FOR PRINTING ----
   --- Forming Natural Orbitals
   --- Canonicalize Internal Space
   --- Canonicalize External Space

MACRO-ITERATION  14: 
   --- Inactive Energy E0 = -87.22350798 Eh
   --- All densities will be recomputed
CI-ITERATION   0: 
   -99.450164796   0.000000000000 (    0.12)
   CI-PROBLEM SOLVED
   DENSITIES MADE
   E(CAS)=   -99.450164796 Eh DE=    6.366463e-12
   --- Energy gap subspaces: Ext-Act = -1.005   Act-Int = 0.684
   --- current l-shift: Up(Ext-Act) = 1.61   Dn(Act-Int) = 0.00
   N(occ)=  1.98981 1.98936 1.00000 0.01063 0.01021
   ||g|| =     1.754306e-04 Max(G)=   -1.156763e-04 Rot=15,3
--------------
CASSCF RESULTS
--------------

Final CASSCF energy       : -99.450164796 Eh   -2706.1766 eV

----------------
ORBITAL ENERGIES
----------------

  NO   OCC          E(Eh)            E(eV) 
   0   2.0000     -26.389528      -718.0956 
   1   2.0000      -1.485320       -40.4176 
   2   1.9898      -0.707413       -19.2497 
   3   1.9894      -0.800836       -21.7918 
   4   1.0000      -0.365365        -9.9421 
   5   0.0106       1.644617        44.7523 
   6   0.0102       1.634443        44.4754 
   7   0.0000       0.639301        17.3963 
   8   0.0000       0.678032        18.4502 
   9   0.0000       2.203268        59.9540 
  10   0.0000       2.207603        60.0719 
  11   0.0000       2.207621        60.0724 
  12   0.0000       2.212505        60.2053 
  13   0.0000       2.213639        60.2362 
  14   0.0000       2.604563        70.8738 
  15   0.0000       2.619670        71.2848 
  16   0.0000       3.530616        96.0729 
  17   0.0000       3.767451       102.5176 
  18   0.0000       7.284413       198.2189 
  19   0.0000       7.291242       198.4048 
  20   0.0000       7.291314       198.4067 
  21   0.0000       7.311650       198.9601 
  22   0.0000       7.311651       198.9601 
  23   0.0000       7.345704       199.8868 
  24   0.0000       7.345708       199.8869 
  25   0.0000       8.733766       237.6579 
  26   0.0000       8.752881       238.1780 
  27   0.0000       8.752963       238.1802 
  28   0.0000       8.768154       238.5936 
  29   0.0000       8.773866       238.7490 
  30   0.0000      57.873083      1574.8067 


---------------------------------------------
CAS-SCF STATES FOR BLOCK  1 MULT= 2 NROOTS= 1
---------------------------------------------

ROOT   0:  E=     -99.4501647964 Eh
      0.98945 [     0]: 22100
      0.00460 [    25]: 11111
      0.00284 [    11]: 20120
      0.00264 [    39]: 02102


--------------
DENSITY MATRIX
--------------

                  0          1          2          3          4    
      0       1.989806  -0.000000  -0.000000   0.000000   0.000000
      1      -0.000000   1.989357  -0.000000   0.000000  -0.000000
      2      -0.000000  -0.000000   1.000000   0.000000   0.000000
      3       0.000000   0.000000   0.000000   0.010629   0.000000
      4       0.000000  -0.000000   0.000000   0.000000   0.010208
Trace of the electron density:  5.000000
Extracting Spin-Density from 2-RDM (MULT=2) ... done

-------------------
SPIN-DENSITY MATRIX
-------------------

                  0          1          2          3          4    
      0       0.000125   0.000000   0.000000  -0.000000   0.010700
      1       0.000000   0.000164   0.000000   0.011459   0.000000
      2       0.000000   0.000000   0.999560   0.000000   0.000000
      3      -0.000000   0.011459   0.000000   0.000073  -0.000000
      4       0.010700   0.000000   0.000000  -0.000000   0.000079
Trace of the spin density:  1.000000

-----------------
ENERGY COMPONENTS
-----------------

One electron energy          :   -139.154603714 Eh       -3786.5893 eV
Two electron energy          :     39.704438918 Eh        1080.4127 eV
Nuclear repulsion energy     :      0.000000000 Eh           0.0000 eV
                               ----------------
                                  -99.450164796

Kinetic energy               :     99.450717832 Eh        2706.1916 eV
Potential energy             :   -198.900882629 Eh       -5412.3682 eV
Virial ratio                 :     -1.999994439 
                               ----------------
                                  -99.450164796

Core energy                  :    -87.223507977 Eh    -2373.4723 eV


----------------------------
LOEWDIN ORBITAL-COMPOSITIONS
----------------------------

                      0         1         2         3         4         5   
                 -26.38953  -1.48532  -0.70741  -0.80084  -0.36537   1.64462
                   2.00000   2.00000   1.98981   1.98936   1.00000   0.01063
                  --------  --------  --------  --------  --------  --------
 0 F  s             100.0      89.2       0.0      10.8       0.0      13.2
 0 F  pz              0.0      10.8       0.1      89.0       0.2      86.2
 0 F  px              0.0       0.0      99.8       0.1       0.1       0.1
 0 F  py              0.0       0.0       0.1       0.2      99.7       0.2
 0 F  dz2             0.0       0.0       0.0       0.0       0.0       0.4

                      6         7         8         9        10        11   
                   1.63444   0.63930   0.67803   2.20327   2.20760   2.20762
                   0.01021   0.00000   0.00000   0.00000   0.00000   0.00000
                  --------  --------  --------  --------  --------  --------
 0 F  s               0.0      86.8       0.0       0.0       0.0       0.0
 0 F  pz              0.1      13.2       0.2       0.0       0.0       0.0
 0 F  px             99.4       0.0       0.1       0.0       0.0       0.0
 0 F  py              0.1       0.0      99.7       0.0       0.0       0.0
 0 F  dz2             0.0       0.0       0.0      25.2       0.0       0.6
 0 F  dxz             0.4       0.0       0.0       0.0       0.2       0.1
 0 F  dyz             0.0       0.0       0.0       0.6       0.1      99.1
 0 F  dx2y2           0.0       0.0       0.0      73.9       0.4       0.2
 0 F  dxy             0.0       0.0       0.0       0.3      99.4       0.1

                     12        13        14        15        16        17   
                   2.21250   2.21364   2.60456   2.61967   3.53062   3.76745
                   0.00000   0.00000   0.00000   0.00000   0.00000   0.00000
                  --------  --------  --------  --------  --------  --------
 0 F  s               0.0       0.2       0.0       9.6       0.0      90.2
 0 F  pz              0.0       1.3       0.1      88.8       0.2       9.7
 0 F  px              1.8       0.0      98.1       0.1       0.1       0.0
 0 F  py              0.0       0.0       0.1       0.2      99.7       0.0
 0 F  dz2             0.2      72.9       0.0       1.1       0.0       0.0
 0 F  dxz            97.6       0.3       1.7       0.0       0.0       0.0
 0 F  dyz             0.1       0.2       0.0       0.0       0.0       0.0
 0 F  dx2y2           0.1      25.1       0.0       0.3       0.0       0.0
 0 F  dxy             0.2       0.1       0.0       0.0       0.0       0.0

                     18        19        20        21        22        23   
                   7.28441   7.29124   7.29131   7.31165   7.31165   7.34570
                   0.00000   0.00000   0.00000   0.00000   0.00000   0.00000
                  --------  --------  --------  --------  --------  --------
 0 F  f0              0.4       0.0      36.7       0.0       0.7       0.4
 0 F  f+1             0.0       6.1       0.0       0.5       0.0      92.7
 0 F  f-1            36.5       0.0       1.4       0.2      61.6       0.1
 0 F  f+2             0.7       0.0      61.4       0.4       0.0       0.3
 0 F  f-2             0.0       0.5       0.2      98.6       0.3       0.3
 0 F  f+3             0.5      92.6       0.1       0.3       0.3       6.2
 0 F  f-3            61.8       0.8       0.2       0.1      37.0       0.1

                     24        25        26        27        28        29   
                   7.34571   8.73377   8.75288   8.75296   8.76815   8.77387
                   0.00000   0.00000   0.00000   0.00000   0.00000   0.00000
                  --------  --------  --------  --------  --------  --------
 0 F  pz              0.0       0.1       0.0       0.0       0.0       0.1
 0 F  px              0.0       0.0       0.0       0.0       0.3       0.0
 0 F  dz2             0.0      46.9       0.0       0.6       0.2      52.1
 0 F  dxz             0.0       0.0       0.2       0.1      99.2       0.3
 0 F  dyz             0.0       0.7       0.1      99.1       0.1       0.1
 0 F  dx2y2           0.0      52.1       0.4       0.2       0.1      47.3
 0 F  dxy             0.0       0.2      99.4       0.1       0.2       0.2
 0 F  f0             61.8       0.0       0.0       0.0       0.0       0.0
 0 F  f+1             0.6       0.0       0.0       0.0       0.0       0.0
 0 F  f-1             0.2       0.0       0.0       0.0       0.0       0.0
 0 F  f+2            37.1       0.0       0.0       0.0       0.0       0.0
 0 F  f-2             0.2       0.0       0.0       0.0       0.0       0.0

                     30   
                  57.87308
                   0.00000
                  --------
 0 F  s             100.0

----------------------------
LOEWDIN REDUCED ACTIVE MOs  
----------------------------

                      0         1         2         3         4         5   
                 -26.38953  -1.48532  -0.70741  -0.80084  -0.36537   1.64462
                   2.00000   2.00000   1.98981   1.98936   1.00000   0.01063
                  --------  --------  --------  --------  --------  --------
 0 F  s             100.0      89.2       0.0      10.8       0.0      13.2
 0 F  pz              0.0      10.8       0.1      89.0       0.2      86.2
 0 F  px              0.0       0.0      99.8       0.1       0.1       0.1
 0 F  py              0.0       0.0       0.1       0.2      99.7       0.2

                      6         7         8         9        10        11   
                   1.63444   0.63930   0.67803   2.20327   2.20760   2.20762
                   0.01021   0.00000   0.00000   0.00000   0.00000   0.00000
                  --------  --------  --------  --------  --------  --------
 0 F  s               0.0      86.8       0.0       0.0       0.0       0.0
 0 F  pz              0.1      13.2       0.2       0.0       0.0       0.0
 0 F  px             99.4       0.0       0.1       0.0       0.0       0.0
 0 F  py              0.1       0.0      99.7       0.0       0.0       0.0
 0 F  dz2             0.0       0.0       0.0      25.2       0.0       0.6
 0 F  dyz             0.0       0.0       0.0       0.6       0.1      99.1
 0 F  dx2y2           0.0       0.0       0.0      73.9       0.4       0.2
 0 F  dxy             0.0       0.0       0.0       0.3      99.4       0.1

------------------------------------------------------------------------------
                           ORCA POPULATION ANALYSIS
------------------------------------------------------------------------------
Input electron density              ... CASSCF.scfp
Input spin density                  ... CASSCF.scfr
BaseName (.gbw .S,...)              ... CASSCF

                    ********************************
                    * MULLIKEN POPULATION ANALYSIS *
                    ********************************

------------------------------------------
MULLIKEN ATOMIC CHARGES AND SPIN DENSITIES
------------------------------------------
   0 F :   -0.000000    1.000000
Sum of atomic charges       :   -0.0000000
Sum of atomic spin densities:    1.0000000

---------------------------------------------------
MULLIKEN REDUCED ORBITAL CHARGES AND SPIN DENSITIES
---------------------------------------------------
CHARGE
  0 F s       :     4.000267  s :     4.000267
      pz      :     1.997743  p :     4.999549
      px      :     1.999039
      py      :     1.002767
      dz2     :     0.000042  d :     0.000095
      dxz     :     0.000040
      dyz     :     0.000000
      dx2y2   :     0.000013
      dxy     :     0.000000
      f0      :     0.000006  f :     0.000089
      f+1     :     0.000001
      f-1     :     0.000021
      f+2     :     0.000010
      f-2     :     0.000000
      f+3     :     0.000015
      f-3     :     0.000035

SPIN
  0 F s       :     0.000016  s :     0.000016
      pz      :     0.002124  p :     0.999925
      px      :     0.001121
      py      :     0.996681
      dz2     :     0.000001  d :     0.000002
      dxz     :     0.000001
      dyz     :     0.000000
      dx2y2   :    -0.000000
      dxy     :     0.000000
      f0      :     0.000000  f :     0.000057
      f+1     :    -0.000000
      f-1     :     0.000021
      f+2     :     0.000000
      f-2     :     0.000000
      f+3     :     0.000000
      f-3     :     0.000035


                     *******************************
                     * LOEWDIN POPULATION ANALYSIS *
                     *******************************

-----------------------------------------
LOEWDIN ATOMIC CHARGES AND SPIN DENSITIES
-----------------------------------------
   0 F :   -0.000000    1.000000

--------------------------------------------------
LOEWDIN REDUCED ORBITAL CHARGES AND SPIN DENSITIES
--------------------------------------------------
CHARGE
  0 F s       :     4.000267  s :     4.000267
      pz      :     1.997743  p :     4.999549
      px      :     1.999039
      py      :     1.002767
      dz2     :     0.000042  d :     0.000095
      dxz     :     0.000040
      dyz     :     0.000000
      dx2y2   :     0.000013
      dxy     :     0.000000
      f0      :     0.000006  f :     0.000089
      f+1     :     0.000001
      f-1     :     0.000021
      f+2     :     0.000010
      f-2     :     0.000000
      f+3     :     0.000015
      f-3     :     0.000035

SPIN
  0 F s       :     0.000016  s :     0.000016
      pz      :     0.002124  p :     0.999925
      px      :     0.001121
      py      :     0.996681
      dz2     :     0.000001  d :     0.000002
      dxz     :     0.000001
      dyz     :     0.000000
      dx2y2   :    -0.000000
      dxy     :     0.000000
      f0      :     0.000000  f :     0.000057
      f+1     :    -0.000000
      f-1     :     0.000021
      f+2     :     0.000000
      f-2     :     0.000000
      f+3     :     0.000000
      f-3     :     0.000035


                      *****************************
                      * MAYER POPULATION ANALYSIS *
                      *****************************

  NA   - Mulliken gross atomic population
  ZA   - Total nuclear charge
  QA   - Mulliken gross atomic charge
  VA   - Mayer's total valence
  BVA  - Mayer's bonded valence
  FA   - Mayer's free valence

  ATOM       NA         ZA         QA         VA         BVA        FA
  0 F      9.0000     9.0000    -0.0000     1.0829     0.0000     1.0829



Transition Dipole Moments (a.u.) with input orbitals:
MO   0:
 MO   1:      0.019931136 (    -0.000546097,     -0.000853653,     -0.019905357)
 MO   2:      0.054797956 (    -0.054752211,      0.001723929,      0.001428081)
 MO   3:      0.051090222 (    -0.001399729,     -0.002188203,     -0.051024144)
 MO   4:      0.056262557 (    -0.001704916,     -0.056183054,      0.002456216)
 MO   5:      0.059009032 (    -0.001616674,     -0.002527366,     -0.058932713)
 MO   6:      0.062781095 (    -0.062728686,      0.001975076,      0.001636117)
MO   1:
 MO   2:      0.555330722 (    -0.554867134,      0.017470562,      0.014472501)
 MO   3:      0.460444020 (    -0.012614758,     -0.019720896,     -0.459848508)
 MO   4:      0.545781013 (    -0.016538723,     -0.545009788,      0.023826790)
 MO   5:      0.157860122 (     0.004324818,      0.006761174,      0.157655956)
 MO   6:      0.216855032 (     0.216674002,     -0.006822204,     -0.005651469)
MO   2:
 MO   3:      0.195389984 (     0.195226884,     -0.006146903,     -0.005091693)
 MO   5:      0.154574644 (    -0.154445609,      0.004862873,      0.004028252)
 MO   6:      0.020125519 (     0.000551024,      0.000861990,      0.020099499)
MO   3:
 MO   4:      0.191279432 (     0.005796313,      0.191009141,     -0.008350555)
 MO   5:      0.182929477 (    -0.005011715,     -0.007834900,     -0.182692886)
 MO   6:      0.058490803 (    -0.058441984,      0.001840092,      0.001524021)
MO   4:
 MO   5:      0.121702910 (    -0.003687946,     -0.121530936,      0.005313100)
MO   5:
 MO   6:      0.303459142 (     0.303205833,     -0.009546720,     -0.007907826)
MO   6:
CleanUpVectors: The p-vectors have cracked symmetry

-------------------------------------------------------------
 Forming the transition density       ... done in 0.200317 sec
-------------------------------------------------------------



==========================================
CASSCF UV, CD spectra and dipole moments
==========================================
-------------------
ABSORPTION SPECTRUM
-------------------

Center of mass           = (  0.0000,  0.0000,  0.0000)
Nuclear contribution to the dipole moment =     0.000000,    0.000000,    0.000000 au

Calculating the Dipole integrals                  ... done
Transforming integrals                            ... done
Calculating the Linear Momentum integrals         ... done
Transforming integrals                            ... done
Calculating the Angular Momentum integrals        ... done
Transforming integrals                            ... done

------------------------------------------------------------------------------
                                 DIPOLE MOMENTS
------------------------------------------------------------------------------
  Root  Block           TX        TY        TZ           |T|
                      (Debye)   (Debye)   (Debye)      (Debye)
------------------------------------------------------------------------------
    0    0           -0.00083  -0.00131  -0.03043      0.03047

--------------
CASSCF TIMINGS
--------------

Total time                       ...      257.8 sec
Sum of individual times          ...      249.9 sec ( 96.9%)

Calculation of AO operators
   F(Core) operator              ...        0.2 sec (  0.1%)
   G(Act) operator               ...        0.1 sec (  0.0%)
   J(AO) operators               ...        0.0 sec (  0.0%)
Calculation of MO transformed quantities
   J(MO) operators               ...       40.7 sec ( 15.8%)
   (pq|rs) integrals             ...        0.0 sec (  0.0%)
   (ij|ab),(ia|jb) integrals     ...      172.8 sec ( 67.0%)
   AO->MO one electron integrals ...        0.0 sec (  0.0%)
Configuration interaction steps
   CI-setup phase                ...        0.0 sec (  0.0%)
   CI-solution phase             ...       10.7 sec (  4.2%)
   Generation of densities       ...        0.3 sec (  0.1%)
Orbital improvement steps
   Orbital gradient              ...        0.6 sec (  0.2%)
   O(1) converger                ...        0.0 sec (  0.0%)
   O(2) converger                ...       24.3 sec (  9.4%)
Properties                       ...        0.2 sec (  0.1%)
   SOC integral calculation      ...        0.0 sec (  0.0%)
   SSC RMEs (incl. integrals)    ...        0.0 sec (  0.0%)
   SOC RMEs                      ...        0.0 sec (  0.0%)

Maximum memory used throughout the entire CASSCF-calculation: 116.9 MB

-------------------------   --------------------
FINAL SINGLE POINT ENERGY       -99.450164796398
-------------------------   --------------------


                            ***************************************
                            *     ORCA property calculations      *
                            ***************************************

                                    ---------------------
                                    Active property flags
                                    ---------------------
   (+) Dipole Moment


------------------------------------------------------------------------------
                       ORCA ELECTRIC PROPERTIES CALCULATION
------------------------------------------------------------------------------

Dipole Moment Calculation                       ... on
Quadrupole Moment Calculation                   ... off
Polarizability Calculation                      ... off
GBWName                                         ... CASSCF.gbw
Electron density                                ... CASSCF.scfp
The origin for moment calculation is the CENTER OF MASS  = ( 0.000000,  0.000000  0.000000)

-------------
DIPOLE MOMENT
-------------
                                X             Y             Z
Electronic contribution:     -0.00033      -0.00051      -0.01197
Nuclear contribution   :      0.00000       0.00000       0.00000
                        -----------------------------------------
Total Dipole Moment    :     -0.00033      -0.00051      -0.01197
                        -----------------------------------------
Magnitude (a.u.)       :      0.01199
Magnitude (Debye)      :      0.03047



--------------------
Rotational spectrum 
--------------------
 
Rotational constants in cm-1:     0.000000     0.000000     0.000000 
Rotational constants in MHz :     0.000000     0.000000     0.000000 

 Dipole components along the rotational axes: 
x,y,z [a.u.] :    -0.000328    -0.000513    -0.011974 
x,y,z [Debye]:    -0.000835    -0.001305    -0.030435 

 

Timings for individual modules:

Sum of individual times         ...      266.216 sec (=   4.437 min)
GTO integral calculation        ...        2.020 sec (=   0.034 min)   0.8 %
SCF iterations                  ...        0.785 sec (=   0.013 min)   0.3 %
CASSCF iterations               ...      263.411 sec (=   4.390 min)  98.9 %
                             ****ORCA TERMINATED NORMALLY****
TOTAL RUN TIME: 0 days 0 hours 4 minutes 28 seconds 145 msec
