
                                 *****************
                                 * O   R   C   A *
                                 *****************

                                            #,                                       
                                            ###                                      
                                            ####                                     
                                            #####                                    
                                            ######                                   
                                           ########,                                 
                                     ,,################,,,,,                         
                               ,,#################################,,                 
                          ,,##########################################,,             
                       ,#########################################, ''#####,          
                    ,#############################################,,   '####,        
                  ,##################################################,,,,####,       
                ,###########''''           ''''###############################       
              ,#####''   ,,,,##########,,,,          '''####'''          '####       
            ,##' ,,,,###########################,,,                        '##       
           ' ,,###''''                  '''############,,,                           
         ,,##''                                '''############,,,,        ,,,,,,###''
      ,#''                                            '''#######################'''  
     '                                                          ''''####''''         
             ,#######,   #######,   ,#######,      ##                                
            ,#'     '#,  ##    ##  ,#'     '#,    #''#        ######   ,####,        
            ##       ##  ##   ,#'  ##            #'  '#       #        #'  '#        
            ##       ##  #######   ##           ,######,      #####,   #    #        
            '#,     ,#'  ##    ##  '#,     ,#' ,#      #,         ##   #,  ,#        
             '#######'   ##     ##  '#######'  #'      '#     #####' # '####'        



                  #######################################################
                  #                        -***-                        #
                  #          Department of theory and spectroscopy      #
                  #    Directorship and core code : Frank Neese         #
                  #        Max Planck Institute fuer Kohlenforschung    #
                  #                Kaiser Wilhelm Platz 1               #
                  #                 D-45470 Muelheim/Ruhr               #
                  #                      Germany                        #
                  #                                                     #
                  #                  All rights reserved                #
                  #                        -***-                        #
                  #######################################################


                         Program Version 5.0.2 -  RELEASE  -


 With contributions from (in alphabetic order):
   Daniel Aravena         : Magnetic Suceptibility
   Michael Atanasov       : Ab Initio Ligand Field Theory (pilot matlab implementation)
   Alexander A. Auer      : GIAO ZORA, VPT2 properties, NMR spectrum
   Ute Becker             : Parallelization
   Giovanni Bistoni       : ED, misc. LED, open-shell LED, HFLD
   Martin Brehm           : Molecular dynamics
   Dmytro Bykov           : SCF Hessian
   Vijay G. Chilkuri      : MRCI spin determinant printing, contributions to CSF-ICE
   Dipayan Datta          : RHF DLPNO-CCSD density
   Achintya Kumar Dutta   : EOM-CC, STEOM-CC
   Dmitry Ganyushin       : Spin-Orbit,Spin-Spin,Magnetic field MRCI
   Miquel Garcia          : C-PCM and meta-GGA Hessian, CC/C-PCM, Gaussian charge scheme
   Yang Guo               : DLPNO-NEVPT2, F12-NEVPT2, CIM, IAO-localization
   Andreas Hansen         : Spin unrestricted coupled pair/coupled cluster methods
   Benjamin Helmich-Paris : MC-RPA, TRAH-SCF, COSX integrals
   Lee Huntington         : MR-EOM, pCC
   Robert Izsak           : Overlap fitted RIJCOSX, COSX-SCS-MP3, EOM
   Marcus Kettner         : VPT2
   Christian Kollmar      : KDIIS, OOCD, Brueckner-CCSD(T), CCSD density, CASPT2, CASPT2-K
   Simone Kossmann        : Meta GGA functionals, TD-DFT gradient, OOMP2, MP2 Hessian
   Martin Krupicka        : Initial AUTO-CI
   Lucas Lang             : DCDCAS
   Marvin Lechner         : AUTO-CI (C++ implementation), FIC-MRCC
   Dagmar Lenk            : GEPOL surface, SMD
   Dimitrios Liakos       : Extrapolation schemes; Compound Job, initial MDCI parallelization
   Dimitrios Manganas     : Further ROCIS development; embedding schemes
   Dimitrios Pantazis     : SARC Basis sets
   Anastasios Papadopoulos: AUTO-CI, single reference methods and gradients
   Taras Petrenko         : DFT Hessian,TD-DFT gradient, ASA, ECA, R-Raman, ABS, FL, XAS/XES, NRVS
   Peter Pinski           : DLPNO-MP2, DLPNO-MP2 Gradient
   Christoph Reimann      : Effective Core Potentials
   Marius Retegan         : Local ZFS, SOC
   Christoph Riplinger    : Optimizer, TS searches, QM/MM, DLPNO-CCSD(T), (RO)-DLPNO pert. Triples
   Tobias Risthaus        : Range-separated hybrids, TD-DFT gradient, RPA, STAB
   Michael Roemelt        : Original ROCIS implementation
   Masaaki Saitow         : Open-shell DLPNO-CCSD energy and density
   Barbara Sandhoefer     : DKH picture change effects
   Avijit Sen             : IP-ROCIS
   Kantharuban Sivalingam : CASSCF convergence, NEVPT2, FIC-MRCI
   Bernardo de Souza      : ESD, SOC TD-DFT
   Georgi Stoychev        : AutoAux, RI-MP2 NMR, DLPNO-MP2 response
   Willem Van den Heuvel  : Paramagnetic NMR
   Boris Wezisla          : Elementary symmetry handling
   Frank Wennmohs         : Technical directorship


 We gratefully acknowledge several colleagues who have allowed us to
 interface, adapt or use parts of their codes:
   Stefan Grimme, W. Hujo, H. Kruse, P. Pracht,  : VdW corrections, initial TS optimization,
                  C. Bannwarth, S. Ehlert          DFT functionals, gCP, sTDA/sTD-DF
   Ed Valeev, F. Pavosevic, A. Kumar             : LibInt (2-el integral package), F12 methods
   Garnet Chan, S. Sharma, J. Yang, R. Olivares  : DMRG
   Ulf Ekstrom                                   : XCFun DFT Library
   Mihaly Kallay                                 : mrcc  (arbitrary order and MRCC methods)
   Jiri Pittner, Ondrej Demel                    : Mk-CCSD
   Frank Weinhold                                : gennbo (NPA and NBO analysis)
   Christopher J. Cramer and Donald G. Truhlar   : smd solvation model
   Lars Goerigk                                  : TD-DFT with DH, B97 family of functionals
   V. Asgeirsson, H. Jonsson                     : NEB implementation
   FAccTs GmbH                                   : IRC, NEB, NEB-TS, DLPNO-Multilevel, CI-OPT
                                                   MM, QMMM, 2- and 3-layer-ONIOM, Crystal-QMMM,
                                                   LR-CPCM, SF, NACMEs, symmetry and pop. for TD-DFT,
                                                   nearIR, NL-DFT gradient (VV10), updates on ESD,
                                                   ML-optimized integration grids
   S Lehtola, MJT Oliveira, MAL Marques          : LibXC Library
   Liviu Ungur et al                             : ANISO software


 Your calculation uses the libint2 library for the computation of 2-el integrals
 For citations please refer to: http://libint.valeyev.net

 Your ORCA version has been built with support for libXC version: 5.1.0
 For citations please refer to: https://tddft.org/programs/libxc/

 This ORCA versions uses:
   CBLAS   interface :  Fast vector & matrix operations
   LAPACKE interface :  Fast linear algebra routines
   SCALAPACK package :  Parallel linear algebra routines
   Shared memory     :  Shared parallel matrices
   BLAS/LAPACK       :  OpenBLAS 0.3.15  USE64BITINT DYNAMIC_ARCH NO_AFFINITY Haswell SINGLE_THREADED
        Core in use  :  Haswell
   Copyright (c) 2011-2014, The OpenBLAS Project


================================================================================

----- Orbital basis set information -----
Your calculation utilizes the basis: def2-TZVP
   F. Weigend and R. Ahlrichs, Phys. Chem. Chem. Phys. 7, 3297 (2005).

================================================================================
                                        WARNINGS
                       Please study these warnings very carefully!
================================================================================


INFO   : the flag for use of the SHARK integral package has been found!

================================================================================
                                       INPUT FILE
================================================================================
NAME = CASSCF.in
|  1> ! RHF def2-TZVP TightSCF Conv
|  2> 
|  3> %casscf
|  4>   nel 1
|  5>   norb 1
|  6>   switchstep nr
|  7> end
|  8> 
|  9> * xyz 0 2
| 10> F 0 0 0
| 11> **                         ****END OF INPUT****
================================================================================

                       ****************************
                       * Single Point Calculation *
                       ****************************

---------------------------------
CARTESIAN COORDINATES (ANGSTROEM)
---------------------------------
  F      0.000000    0.000000    0.000000

----------------------------
CARTESIAN COORDINATES (A.U.)
----------------------------
  NO LB      ZA    FRAG     MASS         X           Y           Z
   0 F     9.0000    0    18.998    0.000000    0.000000    0.000000

--------------------------------
INTERNAL COORDINATES (ANGSTROEM)
--------------------------------
 F      0   0   0     0.000000000000     0.00000000     0.00000000

---------------------------
INTERNAL COORDINATES (A.U.)
---------------------------
 F      0   0   0     0.000000000000     0.00000000     0.00000000

---------------------
BASIS SET INFORMATION
---------------------
There are 1 groups of distinct atoms

 Group   1 Type F   : 11s6p2d1f contracted to 5s3p2d1f pattern {62111/411/11/1}

Atom   0F    basis set group =>   1
------------------------------------------------------------------------------
                           ORCA GTO INTEGRAL CALCULATION
------------------------------------------------------------------------------
------------------------------------------------------------------------------
                   ___                                                        
                  /   \      - P O W E R E D   B Y -                         
                 /     \                                                     
                 |  |  |   _    _      __       _____    __    __             
                 |  |  |  | |  | |    /  \     |  _  \  |  |  /  |          
                  \  \/   | |  | |   /    \    | | | |  |  | /  /          
                 / \  \   | |__| |  /  /\  \   | |_| |  |  |/  /          
                |  |  |   |  __  | /  /__\  \  |    /   |      \           
                |  |  |   | |  | | |   __   |  |    \   |  |\   \          
                \     /   | |  | | |  |  |  |  | |\  \  |  | \   \       
                 \___/    |_|  |_| |__|  |__|  |_| \__\ |__|  \__/        
                                                                              
                      - O R C A' S   B I G   F R I E N D -                    
                                      &                                       
                       - I N T E G R A L  F E E D E R -                       
                                                                              
 v1 FN, 2020, v2 2021                                                         
------------------------------------------------------------------------------


Reading SHARK input file CASSCF.SHARKINP.tmp ... ok
----------------------
SHARK INTEGRAL PACKAGE
----------------------

Number of atoms                             ...      1
Number of basis functions                   ...     31
Number of shells                            ...     11
Maximum angular momentum                    ...      3
Integral batch strategy                     ... SHARK/LIBINT Hybrid
RI-J (if used) integral strategy            ... SPLIT-RIJ (Revised 2003 algorithm where possible)
Printlevel                                  ...      1
Contraction scheme used                     ... SEGMENTED contraction
Coulomb Range Separation                    ... NOT USED
Exchange Range Separation                   ... NOT USED
Finite Nucleus Model                        ... NOT USED
Auxiliary Coulomb fitting basis             ... NOT available
Auxiliary J/K fitting basis                 ... NOT available
Auxiliary Correlation fitting basis         ... NOT available
Auxiliary 'external' fitting basis          ... NOT available
Integral threshold                          ...     2.500000e-11
Primitive cut-off                           ...     2.500000e-12
Primitive pair pre-selection threshold      ...     2.500000e-12

Calculating pre-screening integrals         ... done (  0.1 sec) Dimension = 11
Organizing shell pair data                  ... done (  0.1 sec)
Shell pair information
Total number of shell pairs                 ...        66
Shell pairs after pre-screening             ...        66
Total number of primitive shell pairs       ...       232
Primitive shell pairs kept                  ...       232
          la=0 lb=0:     15 shell pairs
          la=1 lb=0:     15 shell pairs
          la=1 lb=1:      6 shell pairs
          la=2 lb=0:     10 shell pairs
          la=2 lb=1:      6 shell pairs
          la=2 lb=2:      3 shell pairs
          la=3 lb=0:      5 shell pairs
          la=3 lb=1:      3 shell pairs
          la=3 lb=2:      2 shell pairs
          la=3 lb=3:      1 shell pairs

Calculating one electron integrals          ... done (  0.0 sec)
Calculating Nuclear repulsion               ... done (  0.1 sec) ENN=      0.000000000000 Eh
Calculating 4-index integrals               ... 
    -> SHARK/Ints2Disk: Thresh =     2.500000e-11 TCut=    2.500000e-12 
    -> calling libint FockFlag=2 Lmax_loc=3
    -> L=0 0 1 3:     0.000 sec done=        45 (=100.0%) skipped=         0 
    -> L=0 1 0 3:     0.000 sec done=        75 (=100.0%) skipped=         0 
    -> L=0 1 1 3:     0.000 sec done=        45 (=100.0%) skipped=         0 
    -> L=0 1 2 2:     0.000 sec done=        45 (=100.0%) skipped=         0 
    -> L=0 1 3 3:     0.000 sec done=        15 (=100.0%) skipped=         0 
    -> L=0 2 0 3:     0.000 sec done=        50 (=100.0%) skipped=         0 
    -> L=0 2 1 3:     0.000 sec done=        30 (=100.0%) skipped=         0 
    -> L=0 2 2 2:     0.000 sec done=        30 (=100.0%) skipped=         0 
    -> L=0 3 0 3:     0.000 sec done=        15 (=100.0%) skipped=         0 
    -> L=0 3 1 1:     0.000 sec done=        30 (=100.0%) skipped=         0 
    -> L=0 3 1 2:     0.000 sec done=        30 (=100.0%) skipped=         0 
    -> L=0 3 1 3:     0.000 sec done=        15 (=100.0%) skipped=         0 
    -> L=0 3 2 2:     0.000 sec done=        15 (=100.0%) skipped=         0 
    -> L=1 1 1 2:     0.000 sec done=        36 (=100.0%) skipped=         0 
    -> L=1 1 1 3:     0.000 sec done=        18 (=100.0%) skipped=         0 
    -> L=1 1 2 2:     0.000 sec done=        18 (=100.0%) skipped=         0 
    -> L=1 2 1 2:     0.000 sec done=        21 (=100.0%) skipped=         0 
    -> L=1 2 1 3:     0.000 sec done=        18 (=100.0%) skipped=         0 
    -> L=1 2 2 2:     0.000 sec done=        18 (=100.0%) skipped=         0 
    -> L=1 3 1 3:     0.000 sec done=         6 (=100.0%) skipped=         0 
    -> L=1 3 2 2:     0.000 sec done=         9 (=100.0%) skipped=         0 
    -> L=2 2 2 2:     0.000 sec done=         6 (=100.0%) skipped=         0 
    ->Total LIBINT loop time =    0.113 sec
    -> L=0 0 0 0:     0.000 sec done=       120 (=100.0%) skipped=         0 
    -> L=1 0 0 0:     0.000 sec done=       225 (=100.0%) skipped=         0 
    -> L=1 0 1 0:     0.000 sec done=       120 (=100.0%) skipped=         0 
    -> L=1 1 0 0:     0.000 sec done=        90 (=100.0%) skipped=         0 
    -> L=1 1 1 0:     0.001 sec done=        90 (=100.0%) skipped=         0 
    -> L=1 1 1 1:     0.000 sec done=        21 (=100.0%) skipped=         0 
    -> L=2 0 0 0:     0.000 sec done=       150 (=100.0%) skipped=         0 
    -> L=2 0 1 0:     0.000 sec done=       150 (=100.0%) skipped=         0 
    -> L=2 0 1 1:     0.000 sec done=        60 (=100.0%) skipped=         0 
    -> L=2 0 2 0:     0.000 sec done=        55 (=100.0%) skipped=         0 
    -> L=2 1 0 0:     0.000 sec done=        90 (=100.0%) skipped=         0 
    -> L=2 1 1 0:     0.000 sec done=        90 (=100.0%) skipped=         0 
    -> L=2 1 2 0:     0.000 sec done=        60 (=100.0%) skipped=         0 
    -> L=2 2 0 0:     0.000 sec done=        45 (=100.0%) skipped=         0 
    -> L=3 0 0 0:     0.000 sec done=        75 (=100.0%) skipped=         0 
    -> L=3 2 0 0:     0.000 sec done=        30 (=100.0%) skipped=         0 
    -> L=3 2 1 0:     0.000 sec done=        30 (=100.0%) skipped=         0 
    -> L=3 2 1 1:     0.000 sec done=        12 (=100.0%) skipped=         0 
    -> L=3 2 2 0:     0.000 sec done=        20 (=100.0%) skipped=         0 
    -> L=3 2 2 1:     0.000 sec done=        12 (=100.0%) skipped=         0 
    -> L=3 2 2 2:     0.000 sec done=         6 (=100.0%) skipped=         0 
    -> L=3 2 3 0:     0.000 sec done=        10 (=100.0%) skipped=         0 
    -> L=3 2 3 1:     0.000 sec done=         6 (=100.0%) skipped=         0 
    -> L=3 2 3 2:     0.000 sec done=         3 (=100.0%) skipped=         0 
    -> L=3 3 0 0:     0.000 sec done=        15 (=100.0%) skipped=         0 
    -> L=3 3 1 1:     0.000 sec done=         6 (=100.0%) skipped=         0 
    -> L=3 3 2 0:     0.000 sec done=        10 (=100.0%) skipped=         0 
    -> L=3 3 2 1:     0.000 sec done=         6 (=100.0%) skipped=         0 
    -> L=3 3 2 2:     0.000 sec done=         3 (=100.0%) skipped=         0 
    -> L=3 3 3 0:     0.000 sec done=         5 (=100.0%) skipped=         0 
    -> L=3 3 3 1:     0.000 sec done=         3 (=100.0%) skipped=         0 
    -> L=3 3 3 2:     0.000 sec done=         2 (=100.0%) skipped=         0 
    -> L=3 3 3 3:     0.000 sec done=         1 (=100.0%) skipped=         0 
    ->Total SHARK integral loop time =    0.174 sec
    -> Total Integral generation matrix time =    0.493 sec
    -> Number of small integrals   =         0
    -> Number of medium integrals  =         0
    -> Number of large integrals   =     13219
    -> Number of MB stored         =         0 MB


SHARK setup successfully completed in   1.5 seconds

Maximum memory used throughout the entire GTOINT-calculation: 36.7 MB
-------------------------------------------------------------------------------
                                 ORCA SCF
-------------------------------------------------------------------------------

------------
SCF SETTINGS
------------
Hamiltonian:
 Ab initio Hamiltonian  Method          .... Hartree-Fock(GTOs)


General Settings:
 Integral files         IntName         .... CASSCF
 Hartree-Fock type      HFTyp           .... CASSCF
 Total Charge           Charge          ....    0
 Multiplicity           Mult            ....    2
 Number of Electrons    NEL             ....    9
 Basis Dimension        Dim             ....   31
 Nuclear Repulsion      ENuc            ....      0.0000000000 Eh


Diagonalization of the overlap matrix:
Smallest eigenvalue                        ... 3.088e-02
Time for diagonalization                   ...    0.001 sec
Threshold for overlap eigenvalues          ... 1.000e-08
Number of eigenvalues below threshold      ... 0
Time for construction of square roots      ...    0.065 sec
Total time needed                          ...    0.067 sec

Time for model grid setup =    0.046 sec

------------------------------
INITIAL GUESS: MODEL POTENTIAL
------------------------------
Loading Hartree-Fock densities                     ... done
Calculating cut-offs                               ... done
Initializing the effective Hamiltonian             ... done
Setting up the integral package (SHARK)            ... done
Starting the Coulomb interaction                   ... done (   0.2 sec)
Reading the grid                                   ... done
Mapping shells                                     ... done
Starting the XC term evaluation                    ... done (   0.0 sec)
Transforming the Hamiltonian                       ... done (   0.0 sec)
Diagonalizing the Hamiltonian                      ... done (   0.0 sec)
Back transforming the eigenvectors                 ... done (   0.0 sec)
Now organizing SCF variables                       ... done
                      ------------------
                      INITIAL GUESS DONE (   0.2 sec)
                      ------------------


 ... the calculation is a CASSCF calculation -I'm leaving here GOOD LUCK!!!

-------------------------------------------------------------------------------
                              ORCA-CASSCF
-------------------------------------------------------------------------------

Setting up the integral package       ... done
Building the CAS space                ... done (1 configurations for Mult=2)

SYSTEM-SPECIFIC SETTINGS:
Number of active electrons          ...    1
Number of active orbitals           ...    1
Total number of electrons           ...    9
Total number of orbitals            ...   31

Determined orbital ranges:
   Internal       0 -    3 (   4 orbitals)
   Active         4 -    4 (   1 orbitals)
   External       5 -   30 (  26 orbitals)
Number of rotation parameters      ...    134

CI-STEP:
CI strategy                         ... General CI
Number of multiplicity blocks       ...    1
BLOCK  1 WEIGHT=   1.0000
  Multiplicity                      ...    2
  #(Configurations)                 ...    1
  #(CSFs)                           ...    1
  #(Roots)                          ...    1
    ROOT=0 WEIGHT=    1.000000
   ===>>> The calculation is a restricted open-shell Hartree-Fock case

  PrintLevel                        ...    1
  N(GuessMat)                       ...       512
  MaxDim(CI)                        ...        10
  MaxIter(CI)                       ...        64
  Energy Tolerance CI               ...  2.50e-09
  Residual Tolerance CI             ...  2.50e-09
  Shift(CI)                         ...  1.00e-04

INTEGRAL-TRANSFORMATION-STEP:
  Algorithm                         ... EXACT

ORBITAL-IMPROVEMENT-STEP:
  Algorithm                         ... SuperCI(PT)
  Default Parametrization           ... CAYLEY
  Act-Act rotations                 ... depends on algorithm used
  FreezeIE                          ... 95.00% of ||g||
  Until reaching FreezeIE rotations with active orbitals are damped. 

  Approx. Fock at                   ... 0.000000e+00 density convergence
  Level shift                       ... energy gap dependent. Minimum=0.600

  Note: SuperCI(PT) will ignore FreezeIE, FreezeAct and FreezeGrad. In general Default settings are encouraged.
        In conjunction with ShiftUp, ShiftDn or GradScaling the performance of SuperCI(PT) is less optimal.  

  MaxRot                            ... 2.00e-01 
  Max. no of vectors (DIIS)         ... 15
  DThresh (cut-off) metric          ... 1.00e-06
  Switch step at gradient           ...  3.00e-02 
  Switch step at iteration          ...        50   
  Switch step to                    ... NR    

  Newton-Raphson/Augmented Hessian solver details:
  Solver                            ... 0
  Tol                               ... 1.0e-06
  Max. no of iterations             ... 35
  PrintLevel                        ... 1
  N(GuessMat)                       ... 512
  ExactDiagSwitch                   ... 512
  Diagonal Hessian Shift            ... 0.000e+00
  Secular equation safety shift     ... 1.000e-04
  Denominator shift in update       ... 1.000e-04
  Cutoff for Hessian matrix storage ... 2.500e-11
  Max. memory for integral trafo    ... 1024
  Max. no of expansion vectors      ... 35
  Max. DIIS vectors                 ... 12
  Preconditioner                    ... CASSCF-FOCKIAN
  SubMatrix initial guess+update    ... ON


SCF-SETTINGS:
  Incremental                       ... off
  RIJCOSX approximation             ... off
  RI-JK approximation               ... off
  AO integral handling              ... CONVENTIONAL
  Integral Neglect Thresh           ...  2.50e-11
  Primitive cutoff TCut             ...  2.50e-12
  Energy convergence tolerance      ...  2.50e-08
  Orbital gradient convergence      ...  2.50e-04
  Max. number of iterations         ...        75  


FINAL ORBITALS:
  Active   Orbitals                 ... natural 
  Internal Orbitals                 ... canonical 
  External Orbitals                 ... canonical 

------------------
CAS-SCF ITERATIONS
------------------


MACRO-ITERATION   1: 
   --- Inactive Energy E0 = -98.54502842 Eh
CI-ITERATION   0: 
   -99.394130739   0.000000000000 (    0.07)
   CI-PROBLEM SOLVED
   DENSITIES MADE

                 <<<<<<<<<<<<<<<<<<INITIAL CI STATE CHECK>>>>>>>>>>>>>>>>>>

BLOCK  1 MULT= 2 NROOTS= 1 
ROOT   0:  E=     -99.3941307393 Eh
      1.00000 [     0]: 1

                 <<<<<<<<<<<<<<<<<<INITIAL CI STATE CHECK>>>>>>>>>>>>>>>>>>

   E(CAS)=   -99.394130739 Eh DE=    0.000000e+00
   --- Energy gap subspaces: Ext-Act = 1.020   Act-Int = 0.342
   --- current l-shift: Up(Ext-Act) = 1.00   Dn(Act-Int) = 1.26
   N(occ)=  1.00000
   ||g|| =     1.164510e+00 Max(G)=    8.079957e-01 Rot=30,0
   --- Orbital Update [SuperCI(PT)]
   --- Canonicalize Internal Space
   --- Canonicalize External Space
   --- SX_PT (Skipped TA=0 IT=0): ||X|| =      0.056724858 Max(X)(8,4) =      0.042116089 
   --- SFit(Active Orbitals)

MACRO-ITERATION   2: 
   --- Inactive Energy E0 = -98.58392466 Eh
CI-ITERATION   0: 
   -99.406645137   0.000000000000 (    0.07)
   CI-PROBLEM SOLVED
   DENSITIES MADE
   E(CAS)=   -99.406645137 Eh DE=   -1.251440e-02
   --- Energy gap subspaces: Ext-Act = 0.992   Act-Int = 0.348
   --- current l-shift: Up(Ext-Act) = 0.50   Dn(Act-Int) = 0.75
   N(occ)=  1.00000
   ||g|| =     1.172455e-01 Max(G)=   -6.727253e-02 Rot=15,3
   --- Orbital Update [SuperCI(PT)]
   --- Canonicalize Internal Space
   --- Canonicalize External Space
   --- SX_PT (Skipped TA=0 IT=0): ||X|| =      0.010545335 Max(X)(8,4) =      0.006210122 
   --- SFit(Active Orbitals)

MACRO-ITERATION   3: 
   --- Inactive Energy E0 = -98.57261188 Eh
CI-ITERATION   0: 
   -99.407099797   0.000000000000 (    0.09)
   CI-PROBLEM SOLVED
   DENSITIES MADE
   E(CAS)=   -99.407099797 Eh DE=   -4.546602e-04
   --- Energy gap subspaces: Ext-Act = 1.000   Act-Int = 0.346
   --- current l-shift: Up(Ext-Act) = 0.33   Dn(Act-Int) = 0.59
   N(occ)=  1.00000
   ||g|| =     3.321242e-02 Max(G)=    1.446977e-02 Rot=8,4
   --- Orbital Update [SuperCI(PT)]
   --- Canonicalize Internal Space
   --- Canonicalize External Space
   --- SX_PT (Skipped TA=0 IT=0): ||X|| =      0.005437538 Max(X)(6,4) =     -0.004635139 
   --- SFit(Active Orbitals)

MACRO-ITERATION   4: 
   --- Inactive Energy E0 = -98.57513409 Eh
CI-ITERATION   0: 
   -99.407163257   0.000000000000 (    0.01)
   CI-PROBLEM SOLVED
   DENSITIES MADE
   E(CAS)=   -99.407163257 Eh DE=   -6.346017e-05
   --- Energy gap subspaces: Ext-Act = 0.996   Act-Int = 0.347
   --- current l-shift: Up(Ext-Act) = 0.00   Dn(Act-Int) = 0.25
   N(occ)=  1.00000
   ||g|| =     6.470610e-03 Max(G)=    2.739323e-03 Rot=16,4
   --- Orbital Update [SuperCI(PT)]
   --- Canonicalize Internal Space
   --- Canonicalize External Space
   --- SX_PT (Skipped TA=0 IT=0): ||X|| =      0.001056727 Max(X)(6,4) =      0.000749259 
   --- SFit(Active Orbitals)

MACRO-ITERATION   5: 
   ===>>> Convergence to 3.0e-02 achieved - switching to Step=NR
   --- Inactive Energy E0 = -98.57416853 Eh
CI-ITERATION   0: 
   -99.407167457   0.000000000000 (    0.09)
   CI-PROBLEM SOLVED
   DENSITIES MADE
   E(CAS)=   -99.407167457 Eh DE=   -4.200327e-06
   --- Energy gap subspaces: Ext-Act = 0.997   Act-Int = 0.347
   --- current l-shift: Up(Ext-Act) = 0.00   Dn(Act-Int) = 0.25
   N(occ)=  1.00000
   ||g|| =     6.593427e-04 Max(G)=    3.278791e-04 Rot=17,0
   --- Orbital Update [        NR]
   Warning: offending negative eigenvalue - following it
   Warning: offending negative eigenvalue - following it
   Warning: offending negative eigenvalue - following it
   Warning: offending negative eigenvalue - following it
   Warning: offending negative eigenvalue - following it
   --- SFit(Active Orbitals)

MACRO-ITERATION   6: 
   --- Inactive Energy E0 = -98.57412445 Eh
CI-ITERATION   0: 
   -99.407167466   0.000000000000 (    0.09)
   CI-PROBLEM SOLVED
   DENSITIES MADE
   E(CAS)=   -99.407167466 Eh DE=   -8.847223e-09
   --- Energy gap subspaces: Ext-Act = 0.997   Act-Int = 0.347
   --- current l-shift: Up(Ext-Act) = 0.00   Dn(Act-Int) = 0.25
   N(occ)=  1.00000
   ||g|| =     2.712636e-09 Max(G)=    1.554849e-09 Rot=16,4
                     ---- THE CAS-SCF ENERGY   HAS CONVERGED ----
                     ---- THE CAS-SCF GRADIENT HAS CONVERGED ----
                            --- FINALIZING ORBITALS ---
                    ---- DOING ONE FINAL ITERATION FOR PRINTING ----
   --- Forming Natural Orbitals
   --- Canonicalize Internal Space
   --- Canonicalize External Space

MACRO-ITERATION   7: 
   --- Inactive Energy E0 = -98.57412445 Eh
   --- All densities will be recomputed
CI-ITERATION   0: 
   -99.407167466   0.000000000000 (    0.06)
   CI-PROBLEM SOLVED
   DENSITIES MADE
   E(CAS)=   -99.407167466 Eh DE=    1.421085e-14
   --- Energy gap subspaces: Ext-Act = 0.995   Act-Int = 0.347
   --- current l-shift: Up(Ext-Act) = 0.00   Dn(Act-Int) = 0.25
   N(occ)=  1.00000
   ||g|| =     2.712631e-09 Max(G)=   -1.551417e-09 Rot=14,4
--------------
CASSCF RESULTS
--------------

Final CASSCF energy       : -99.407167466 Eh   -2705.0065 eV

----------------
ORBITAL ENERGIES
----------------

  NO   OCC          E(Eh)            E(eV) 
   0   2.0000     -26.381847      -717.8865 
   1   2.0000      -1.571462       -42.7617 
   2   2.0000      -0.704660       -19.1748 
   3   2.0000      -0.704660       -19.1748 
   4   1.0000      -0.357738        -9.7346 
   5   0.0000       0.636785        17.3278 
   6   0.0000       0.681669        18.5492 
   7   0.0000       0.683712        18.6047 
   8   0.0000       0.683712        18.6047 
   9   0.0000       2.209503        60.1236 
  10   0.0000       2.213810        60.2408 
  11   0.0000       2.213810        60.2408 
  12   0.0000       2.226115        60.5757 
  13   0.0000       2.226115        60.5757 
  14   0.0000       3.538211        96.2796 
  15   0.0000       3.543638        96.4273 
  16   0.0000       3.543638        96.4273 
  17   0.0000       3.803873       103.5086 
  18   0.0000       7.293243       198.4592 
  19   0.0000       7.300208       198.6487 
  20   0.0000       7.300208       198.6487 
  21   0.0000       7.320793       199.2089 
  22   0.0000       7.320793       199.2089 
  23   0.0000       7.355249       200.1465 
  24   0.0000       7.355249       200.1465 
  25   0.0000       8.752096       238.1566 
  26   0.0000       8.762832       238.4488 
  27   0.0000       8.762832       238.4488 
  28   0.0000       8.795338       239.3333 
  29   0.0000       8.795338       239.3333 
  30   0.0000      57.881922      1575.0472 


---------------------------------------------
CAS-SCF STATES FOR BLOCK  1 MULT= 2 NROOTS= 1
---------------------------------------------

ROOT   0:  E=     -99.4071674661 Eh
      1.00000 [     0]: 1


--------------
DENSITY MATRIX
--------------

                  0    
      0       1.000000
Trace of the electron density:  1.000000
Extracting Spin-Density from 2-RDM (MULT=2) ... done

-------------------
SPIN-DENSITY MATRIX
-------------------

                  0    
      0       1.000000
Trace of the spin density:  1.000000

-----------------
ENERGY COMPONENTS
-----------------

One electron energy          :   -139.256032218 Eh       -3789.3493 eV
Two electron energy          :     39.848864752 Eh        1084.3427 eV
Nuclear repulsion energy     :      0.000000000 Eh           0.0000 eV
                               ----------------
                                  -99.407167466

Kinetic energy               :     99.408848087 Eh        2705.0523 eV
Potential energy             :   -198.816015553 Eh       -5410.0588 eV
Virial ratio                 :     -1.999983094 
                               ----------------
                                  -99.407167466

Core energy                  :    -98.574124448 Eh    -2682.3383 eV


----------------------------
LOEWDIN ORBITAL-COMPOSITIONS
----------------------------

                      0         1         2         3         4         5   
                 -26.38185  -1.57146  -0.70466  -0.70466  -0.35774   0.63679
                   2.00000   2.00000   2.00000   2.00000   1.00000   0.00000
                  --------  --------  --------  --------  --------  --------
 0 F  s             100.0     100.0       0.0       0.0       0.0     100.0
 0 F  pz              0.0       0.0      98.4       1.4       0.2       0.0
 0 F  px              0.0       0.0       1.5      98.2       0.3       0.0
 0 F  py              0.0       0.0       0.1       0.4      99.5       0.0

                      6         7         8         9        10        11   
                   0.68167   0.68371   0.68371   2.20950   2.21381   2.21381
                   0.00000   0.00000   0.00000   0.00000   0.00000   0.00000
                  --------  --------  --------  --------  --------  --------
 0 F  pz              0.2      99.8       0.0       0.0       0.0       0.0
 0 F  px              0.3       0.0      99.7       0.0       0.0       0.0
 0 F  py             99.5       0.2       0.3       0.0       0.0       0.0
 0 F  dz2             0.0       0.0       0.0      24.7       0.2       0.3
 0 F  dxz             0.0       0.0       0.0       0.0       0.0       0.5
 0 F  dyz             0.0       0.0       0.0       0.5      37.8      61.2
 0 F  dx2y2           0.0       0.0       0.0      73.8       0.4       1.0
 0 F  dxy             0.0       0.0       0.0       0.9      61.7      36.9

                     12        13        14        15        16        17   
                   2.22612   2.22612   3.53821   3.54364   3.54364   3.80387
                   0.00000   0.00000   0.00000   0.00000   0.00000   0.00000
                  --------  --------  --------  --------  --------  --------
 0 F  s               0.0       0.0       0.0       0.0       0.0     100.0
 0 F  pz              0.0       0.0       0.2      99.8       0.0       0.0
 0 F  px              0.0       0.0       0.3       0.0      99.7       0.0
 0 F  py              0.0       0.0      99.5       0.2       0.3       0.0
 0 F  dz2            10.4      64.3       0.0       0.0       0.0       0.0
 0 F  dxz            85.5      14.0       0.0       0.0       0.0       0.0
 0 F  dyz             0.4       0.0       0.0       0.0       0.0       0.0
 0 F  dx2y2           3.6      21.2       0.0       0.0       0.0       0.0
 0 F  dxy             0.0       0.4       0.0       0.0       0.0       0.0

                     18        19        20        21        22        23   
                   7.29324   7.30021   7.30021   7.32079   7.32079   7.35525
                   0.00000   0.00000   0.00000   0.00000   0.00000   0.00000
                  --------  --------  --------  --------  --------  --------
 0 F  f0              0.4       0.0      36.7       0.0       0.7       1.5
 0 F  f+1             0.1       6.1       0.0       0.3       0.3      90.7
 0 F  f-1            36.6       0.0       1.4       2.4      59.1       0.3
 0 F  f+2             0.7       0.1      60.9       1.1       0.2       1.0
 0 F  f-2             0.0       0.4       0.8      94.6       3.5       0.2
 0 F  f+3             1.7      90.8       0.1       0.5       0.8       6.0
 0 F  f-3            60.5       2.5       0.2       1.2      35.4       0.2

                     24        25        26        27        28        29   
                   7.35525   8.75210   8.76283   8.76283   8.79534   8.79534
                   0.00000   0.00000   0.00000   0.00000   0.00000   0.00000
                  --------  --------  --------  --------  --------  --------
 0 F  dz2             0.0      24.7       0.2       0.3      74.3       0.4
 0 F  dxz             0.0       0.0       0.0       0.5       0.5      99.0
 0 F  dyz             0.0       0.5      41.5      57.5       0.2       0.3
 0 F  dx2y2           0.0      73.8       0.3       1.1      24.7       0.1
 0 F  dxy             0.0       0.9      58.0      40.6       0.3       0.2
 0 F  f0             60.6       0.0       0.0       0.0       0.0       0.0
 0 F  f+1             2.4       0.0       0.0       0.0       0.0       0.0
 0 F  f-1             0.1       0.0       0.0       0.0       0.0       0.0
 0 F  f+2            36.1       0.0       0.0       0.0       0.0       0.0
 0 F  f-2             0.6       0.0       0.0       0.0       0.0       0.0
 0 F  f+3             0.2       0.0       0.0       0.0       0.0       0.0

                     30   
                  57.88192
                   0.00000
                  --------
 0 F  s             100.0

----------------------------
LOEWDIN REDUCED ACTIVE MOs  
----------------------------

                      0         1         2         3         4         5   
                 -26.38185  -1.57146  -0.70466  -0.70466  -0.35774   0.63679
                   2.00000   2.00000   2.00000   2.00000   1.00000   0.00000
                  --------  --------  --------  --------  --------  --------
 0 F  s             100.0     100.0       0.0       0.0       0.0     100.0
 0 F  pz              0.0       0.0      98.4       1.4       0.2       0.0
 0 F  px              0.0       0.0       1.5      98.2       0.3       0.0
 0 F  py              0.0       0.0       0.1       0.4      99.5       0.0

------------------------------------------------------------------------------
                           ORCA POPULATION ANALYSIS
------------------------------------------------------------------------------
Input electron density              ... CASSCF.scfp
Input spin density                  ... CASSCF.scfr
BaseName (.gbw .S,...)              ... CASSCF

                    ********************************
                    * MULLIKEN POPULATION ANALYSIS *
                    ********************************

------------------------------------------
MULLIKEN ATOMIC CHARGES AND SPIN DENSITIES
------------------------------------------
   0 F :   -0.000000    1.000000
Sum of atomic charges       :   -0.0000000
Sum of atomic spin densities:    1.0000000

---------------------------------------------------
MULLIKEN REDUCED ORBITAL CHARGES AND SPIN DENSITIES
---------------------------------------------------
CHARGE
  0 F s       :     3.999988  s :     3.999988
      pz      :     1.998142  p :     4.999908
      px      :     1.996960
      py      :     1.004805
      dz2     :     0.000003  d :     0.000012
      dxz     :     0.000000
      dyz     :     0.000000
      dx2y2   :     0.000009
      dxy     :     0.000000
      f0      :     0.000007  f :     0.000092
      f+1     :     0.000001
      f-1     :     0.000021
      f+2     :     0.000011
      f-2     :     0.000000
      f+3     :     0.000017
      f-3     :     0.000036

SPIN
  0 F s       :     0.000000  s :     0.000000
      pz      :     0.001840  p :     0.999942
      px      :     0.003022
      py      :     0.995080
      dz2     :     0.000000  d :     0.000000
      dxz     :     0.000000
      dyz     :     0.000000
      dx2y2   :     0.000000
      dxy     :     0.000000
      f0      :     0.000000  f :     0.000058
      f+1     :     0.000000
      f-1     :     0.000021
      f+2     :     0.000000
      f-2     :     0.000000
      f+3     :     0.000001
      f-3     :     0.000035


                     *******************************
                     * LOEWDIN POPULATION ANALYSIS *
                     *******************************

-----------------------------------------
LOEWDIN ATOMIC CHARGES AND SPIN DENSITIES
-----------------------------------------
   0 F :   -0.000000    1.000000

--------------------------------------------------
LOEWDIN REDUCED ORBITAL CHARGES AND SPIN DENSITIES
--------------------------------------------------
CHARGE
  0 F s       :     3.999988  s :     3.999988
      pz      :     1.998142  p :     4.999908
      px      :     1.996960
      py      :     1.004805
      dz2     :     0.000003  d :     0.000012
      dxz     :     0.000000
      dyz     :     0.000000
      dx2y2   :     0.000009
      dxy     :     0.000000
      f0      :     0.000007  f :     0.000092
      f+1     :     0.000001
      f-1     :     0.000021
      f+2     :     0.000011
      f-2     :     0.000000
      f+3     :     0.000017
      f-3     :     0.000036

SPIN
  0 F s       :     0.000000  s :     0.000000
      pz      :     0.001840  p :     0.999942
      px      :     0.003022
      py      :     0.995080
      dz2     :     0.000000  d :     0.000000
      dxz     :     0.000000
      dyz     :     0.000000
      dx2y2   :     0.000000
      dxy     :     0.000000
      f0      :     0.000000  f :     0.000058
      f+1     :     0.000000
      f-1     :     0.000021
      f+2     :     0.000000
      f-2     :     0.000000
      f+3     :     0.000001
      f-3     :     0.000035


                      *****************************
                      * MAYER POPULATION ANALYSIS *
                      *****************************

  NA   - Mulliken gross atomic population
  ZA   - Total nuclear charge
  QA   - Mulliken gross atomic charge
  VA   - Mayer's total valence
  BVA  - Mayer's bonded valence
  FA   - Mayer's free valence

  ATOM       NA         ZA         QA         VA         BVA        FA
  0 F      9.0000     9.0000    -0.0000     1.0000     0.0000     1.0000



Transition Dipole Moments (a.u.) with input orbitals:
MO   0:
 MO   2:      0.055565606 (    -0.006804041,     -0.001995163,     -0.055111350)
 MO   3:      0.055565606 (     0.055062788,     -0.003321603,     -0.006677796)
 MO   4:      0.056783306 (     0.003121614,      0.056645079,     -0.002436082)
MO   1:
 MO   2:      0.587982379 (    -0.071998789,     -0.021112358,     -0.583175549)
 MO   3:      0.587982379 (     0.582661670,     -0.035148431,     -0.070662887)
 MO   4:      0.579031445 (     0.031831765,      0.577621906,     -0.024841249)
MO   2:
MO   3:
MO   4:
CleanUpVectors: The p-vectors have cracked symmetry

-------------------------------------------------------------
 Forming the transition density       ... done in 0.166091 sec
-------------------------------------------------------------



==========================================
CASSCF UV, CD spectra and dipole moments
==========================================
-------------------
ABSORPTION SPECTRUM
-------------------

Center of mass           = (  0.0000,  0.0000,  0.0000)
Nuclear contribution to the dipole moment =     0.000000,    0.000000,    0.000000 au

Calculating the Dipole integrals                  ... done
Transforming integrals                            ... done
Calculating the Linear Momentum integrals         ... done
Transforming integrals                            ... done
Calculating the Angular Momentum integrals        ... done
Transforming integrals                            ... done

------------------------------------------------------------------------------
                                 DIPOLE MOMENTS
------------------------------------------------------------------------------
  Root  Block           TX        TY        TZ           |T|
                      (Debye)   (Debye)   (Debye)      (Debye)
------------------------------------------------------------------------------
    0    0           -0.00000   0.00000  -0.00000      0.00000

--------------
CASSCF TIMINGS
--------------

Total time                       ...      128.4 sec
Sum of individual times          ...      123.1 sec ( 95.9%)

Calculation of AO operators
   F(Core) operator              ...        0.1 sec (  0.1%)
   G(Act) operator               ...        0.1 sec (  0.0%)
   J(AO) operators               ...        0.0 sec (  0.0%)
Calculation of MO transformed quantities
   J(MO) operators               ...       69.9 sec ( 54.4%)
   (pq|rs) integrals             ...        0.0 sec (  0.0%)
   (ij|ab),(ia|jb) integrals     ...       42.0 sec ( 32.7%)
   AO->MO one electron integrals ...        0.0 sec (  0.0%)
Configuration interaction steps
   CI-setup phase                ...        0.0 sec (  0.0%)
   CI-solution phase             ...        8.2 sec (  6.4%)
   Generation of densities       ...        0.0 sec (  0.0%)
Orbital improvement steps
   Orbital gradient              ...        0.5 sec (  0.4%)
   O(1) converger                ...        0.0 sec (  0.0%)
   O(2) converger                ...        2.2 sec (  1.7%)
Properties                       ...        0.2 sec (  0.1%)
   SOC integral calculation      ...        0.0 sec (  0.0%)
   SSC RMEs (incl. integrals)    ...        0.0 sec (  0.0%)
   SOC RMEs                      ...        0.0 sec (  0.0%)

Maximum memory used throughout the entire CASSCF-calculation: 116.8 MB

-------------------------   --------------------
FINAL SINGLE POINT ENERGY       -99.407167466086
-------------------------   --------------------


                            ***************************************
                            *     ORCA property calculations      *
                            ***************************************

                                    ---------------------
                                    Active property flags
                                    ---------------------
   (+) Dipole Moment


------------------------------------------------------------------------------
                       ORCA ELECTRIC PROPERTIES CALCULATION
------------------------------------------------------------------------------

Dipole Moment Calculation                       ... on
Quadrupole Moment Calculation                   ... off
Polarizability Calculation                      ... off
GBWName                                         ... CASSCF.gbw
Electron density                                ... CASSCF.scfp
The origin for moment calculation is the CENTER OF MASS  = ( 0.000000,  0.000000  0.000000)

-------------
DIPOLE MOMENT
-------------
                                X             Y             Z
Electronic contribution:     -0.00000       0.00000      -0.00000
Nuclear contribution   :      0.00000       0.00000       0.00000
                        -----------------------------------------
Total Dipole Moment    :     -0.00000       0.00000      -0.00000
                        -----------------------------------------
Magnitude (a.u.)       :      0.00000
Magnitude (Debye)      :      0.00000



--------------------
Rotational spectrum 
--------------------
 
Rotational constants in cm-1:     0.000000     0.000000     0.000000 
Rotational constants in MHz :     0.000000     0.000000     0.000000 

 Dipole components along the rotational axes: 
x,y,z [a.u.] :    -0.000000     0.000000    -0.000000 
x,y,z [Debye]:    -0.000000     0.000000    -0.000000 

 

Timings for individual modules:

Sum of individual times         ...      135.347 sec (=   2.256 min)
GTO integral calculation        ...        1.580 sec (=   0.026 min)   1.2 %
SCF iterations                  ...        0.742 sec (=   0.012 min)   0.5 %
CASSCF iterations               ...      133.025 sec (=   2.217 min)  98.3 %
                             ****ORCA TERMINATED NORMALLY****
TOTAL RUN TIME: 0 days 0 hours 2 minutes 17 seconds 498 msec
