
                                 *****************
                                 * O   R   C   A *
                                 *****************

                                            #,                                       
                                            ###                                      
                                            ####                                     
                                            #####                                    
                                            ######                                   
                                           ########,                                 
                                     ,,################,,,,,                         
                               ,,#################################,,                 
                          ,,##########################################,,             
                       ,#########################################, ''#####,          
                    ,#############################################,,   '####,        
                  ,##################################################,,,,####,       
                ,###########''''           ''''###############################       
              ,#####''   ,,,,##########,,,,          '''####'''          '####       
            ,##' ,,,,###########################,,,                        '##       
           ' ,,###''''                  '''############,,,                           
         ,,##''                                '''############,,,,        ,,,,,,###''
      ,#''                                            '''#######################'''  
     '                                                          ''''####''''         
             ,#######,   #######,   ,#######,      ##                                
            ,#'     '#,  ##    ##  ,#'     '#,    #''#        ######   ,####,        
            ##       ##  ##   ,#'  ##            #'  '#       #        #'  '#        
            ##       ##  #######   ##           ,######,      #####,   #    #        
            '#,     ,#'  ##    ##  '#,     ,#' ,#      #,         ##   #,  ,#        
             '#######'   ##     ##  '#######'  #'      '#     #####' # '####'        



                  #######################################################
                  #                        -***-                        #
                  #          Department of theory and spectroscopy      #
                  #    Directorship and core code : Frank Neese         #
                  #        Max Planck Institute fuer Kohlenforschung    #
                  #                Kaiser Wilhelm Platz 1               #
                  #                 D-45470 Muelheim/Ruhr               #
                  #                      Germany                        #
                  #                                                     #
                  #                  All rights reserved                #
                  #                        -***-                        #
                  #######################################################


                         Program Version 5.0.2 -  RELEASE  -


 With contributions from (in alphabetic order):
   Daniel Aravena         : Magnetic Suceptibility
   Michael Atanasov       : Ab Initio Ligand Field Theory (pilot matlab implementation)
   Alexander A. Auer      : GIAO ZORA, VPT2 properties, NMR spectrum
   Ute Becker             : Parallelization
   Giovanni Bistoni       : ED, misc. LED, open-shell LED, HFLD
   Martin Brehm           : Molecular dynamics
   Dmytro Bykov           : SCF Hessian
   Vijay G. Chilkuri      : MRCI spin determinant printing, contributions to CSF-ICE
   Dipayan Datta          : RHF DLPNO-CCSD density
   Achintya Kumar Dutta   : EOM-CC, STEOM-CC
   Dmitry Ganyushin       : Spin-Orbit,Spin-Spin,Magnetic field MRCI
   Miquel Garcia          : C-PCM and meta-GGA Hessian, CC/C-PCM, Gaussian charge scheme
   Yang Guo               : DLPNO-NEVPT2, F12-NEVPT2, CIM, IAO-localization
   Andreas Hansen         : Spin unrestricted coupled pair/coupled cluster methods
   Benjamin Helmich-Paris : MC-RPA, TRAH-SCF, COSX integrals
   Lee Huntington         : MR-EOM, pCC
   Robert Izsak           : Overlap fitted RIJCOSX, COSX-SCS-MP3, EOM
   Marcus Kettner         : VPT2
   Christian Kollmar      : KDIIS, OOCD, Brueckner-CCSD(T), CCSD density, CASPT2, CASPT2-K
   Simone Kossmann        : Meta GGA functionals, TD-DFT gradient, OOMP2, MP2 Hessian
   Martin Krupicka        : Initial AUTO-CI
   Lucas Lang             : DCDCAS
   Marvin Lechner         : AUTO-CI (C++ implementation), FIC-MRCC
   Dagmar Lenk            : GEPOL surface, SMD
   Dimitrios Liakos       : Extrapolation schemes; Compound Job, initial MDCI parallelization
   Dimitrios Manganas     : Further ROCIS development; embedding schemes
   Dimitrios Pantazis     : SARC Basis sets
   Anastasios Papadopoulos: AUTO-CI, single reference methods and gradients
   Taras Petrenko         : DFT Hessian,TD-DFT gradient, ASA, ECA, R-Raman, ABS, FL, XAS/XES, NRVS
   Peter Pinski           : DLPNO-MP2, DLPNO-MP2 Gradient
   Christoph Reimann      : Effective Core Potentials
   Marius Retegan         : Local ZFS, SOC
   Christoph Riplinger    : Optimizer, TS searches, QM/MM, DLPNO-CCSD(T), (RO)-DLPNO pert. Triples
   Tobias Risthaus        : Range-separated hybrids, TD-DFT gradient, RPA, STAB
   Michael Roemelt        : Original ROCIS implementation
   Masaaki Saitow         : Open-shell DLPNO-CCSD energy and density
   Barbara Sandhoefer     : DKH picture change effects
   Avijit Sen             : IP-ROCIS
   Kantharuban Sivalingam : CASSCF convergence, NEVPT2, FIC-MRCI
   Bernardo de Souza      : ESD, SOC TD-DFT
   Georgi Stoychev        : AutoAux, RI-MP2 NMR, DLPNO-MP2 response
   Willem Van den Heuvel  : Paramagnetic NMR
   Boris Wezisla          : Elementary symmetry handling
   Frank Wennmohs         : Technical directorship


 We gratefully acknowledge several colleagues who have allowed us to
 interface, adapt or use parts of their codes:
   Stefan Grimme, W. Hujo, H. Kruse, P. Pracht,  : VdW corrections, initial TS optimization,
                  C. Bannwarth, S. Ehlert          DFT functionals, gCP, sTDA/sTD-DF
   Ed Valeev, F. Pavosevic, A. Kumar             : LibInt (2-el integral package), F12 methods
   Garnet Chan, S. Sharma, J. Yang, R. Olivares  : DMRG
   Ulf Ekstrom                                   : XCFun DFT Library
   Mihaly Kallay                                 : mrcc  (arbitrary order and MRCC methods)
   Jiri Pittner, Ondrej Demel                    : Mk-CCSD
   Frank Weinhold                                : gennbo (NPA and NBO analysis)
   Christopher J. Cramer and Donald G. Truhlar   : smd solvation model
   Lars Goerigk                                  : TD-DFT with DH, B97 family of functionals
   V. Asgeirsson, H. Jonsson                     : NEB implementation
   FAccTs GmbH                                   : IRC, NEB, NEB-TS, DLPNO-Multilevel, CI-OPT
                                                   MM, QMMM, 2- and 3-layer-ONIOM, Crystal-QMMM,
                                                   LR-CPCM, SF, NACMEs, symmetry and pop. for TD-DFT,
                                                   nearIR, NL-DFT gradient (VV10), updates on ESD,
                                                   ML-optimized integration grids
   S Lehtola, MJT Oliveira, MAL Marques          : LibXC Library
   Liviu Ungur et al                             : ANISO software


 Your calculation uses the libint2 library for the computation of 2-el integrals
 For citations please refer to: http://libint.valeyev.net

 Your ORCA version has been built with support for libXC version: 5.1.0
 For citations please refer to: https://tddft.org/programs/libxc/

 This ORCA versions uses:
   CBLAS   interface :  Fast vector & matrix operations
   LAPACKE interface :  Fast linear algebra routines
   SCALAPACK package :  Parallel linear algebra routines
   Shared memory     :  Shared parallel matrices
   BLAS/LAPACK       :  OpenBLAS 0.3.15  USE64BITINT DYNAMIC_ARCH NO_AFFINITY Haswell SINGLE_THREADED
        Core in use  :  Haswell
   Copyright (c) 2011-2014, The OpenBLAS Project




***************************************
The coordinates will be read from file: I.xyz
***************************************


Your calculation utilizes the geometrical counterpoise correction gCP
Please cite in your paper:
H.Kruse, S. Grimme J.Chem.Phys., 136, (2012), 154101 
   

Your calculation utilizes the atom-pairwise dispersion correction
with the Becke-Johnson damping scheme (D3BJ)
Cite in your paper:
S.Grimme, S.Ehrlich, L.Goerigk, J Comput Chem, (2011), 32, 1456–1465 
S.Grimme, J.Antony, S.Ehrlich and H.Krieg, J.Chem.Phys., 132, (2010), 154104 
   

Your calculation employs the composite approach PBEh-3c.
Please cite in your paper:
S. Grimme, J. G. Brandenburg, C. Bannwarth, A. Hansen J.Chem.Phys., 143, (2015), 054107 
   

================================================================================

----- Orbital basis set information -----
Your calculation utilizes the basis: def2-mSVP

----- AuxJ basis set information -----
Your calculation utilizes the auxiliary basis: def2/J
   F. Weigend, Phys. Chem. Chem. Phys. 8, 1057 (2006).

================================================================================
                                        WARNINGS
                       Please study these warnings very carefully!
================================================================================


WARNING: Geometry Optimization
  ===> : Switching off AutoStart
         For restart on a previous wavefunction, please use MOREAD

INFO   : the flag for use of the SHARK integral package has been found!

================================================================================
                                       INPUT FILE
================================================================================
NAME = I.inp
|  1> ! PBEh-3c Opt
|  2> 
|  3> *xyzfile 0 1 I.xyz
|  4> 
|  5> 
|  6> 
|  7>                          ****END OF INPUT****
================================================================================

                       *****************************
                       * Geometry Optimization Run *
                       *****************************

Geometry optimization settings:
Update method            Update   .... BFGS
Choice of coordinates    CoordSys .... Z-matrix Internals
Initial Hessian          InHess   .... Almoef's Model

Convergence Tolerances:
Energy Change            TolE     ....  5.0000e-06 Eh
Max. Gradient            TolMAXG  ....  3.0000e-04 Eh/bohr
RMS Gradient             TolRMSG  ....  1.0000e-04 Eh/bohr
Max. Displacement        TolMAXD  ....  4.0000e-03 bohr
RMS Displacement         TolRMSD  ....  2.0000e-03 bohr
Strict Convergence                ....  False
------------------------------------------------------------------------------
                        ORCA OPTIMIZATION COORDINATE SETUP
------------------------------------------------------------------------------

The optimization will be done in new redundant internal coordinates
Making redundant internal coordinates   ...  (new redundants) done
Evaluating the initial hessian          ...  (Almloef) done
Evaluating the coordinates              ...  done
Calculating the B-matrix                .... done
Calculating the G-matrix                .... done
Diagonalizing the G-matrix              .... done
The first mode is                       ....  133
The number of degrees of freedom        ....  108

    -----------------------------------------------------------------
                    Redundant Internal Coordinates


    -----------------------------------------------------------------
         Definition                    Initial Value    Approx d2E/dq
    -----------------------------------------------------------------
      1. B(C   1,C   0)                  1.3909         0.622770   
      2. B(C   3,C   2)                  1.3885         0.628134   
      3. B(C   4,C   3)                  1.3870         0.631619   
      4. B(C   4,C   0)                  1.3904         0.623810   
      5. B(C   5,C   2)                  1.3831         0.640887   
      6. B(C   5,C   1)                  1.3813         0.645106   
      7. B(C   6,C   5)                  1.4726         0.461196   
      8. B(C   7,C   3)                  1.4738         0.459292   
      9. B(C   8,C   0)                  1.4686         0.468040   
     10. B(C   9,C   8)                  1.5540         0.342026   
     11. B(C  10,C   9)                  1.5760         0.315508   
     12. B(C  11,C   7)                  1.5609         0.333498   
     13. B(C  12,C  11)                  1.5773         0.313971   
     14. B(C  13,C   6)                  1.5675         0.325469   
     15. B(C  14,C  13)                  1.5850         0.305182   
     16. B(H  15,C   1)                  1.0842         0.367836   
     17. B(H  16,C   2)                  1.0837         0.368573   
     18. B(H  17,C   4)                  1.0844         0.367521   
     19. B(H  18,C   6)                  1.1113         0.333030   
     20. B(H  19,C   6)                  1.1127         0.331273   
     21. B(H  20,C   7)                  1.1124         0.331594   
     22. B(H  21,C   7)                  1.1113         0.333057   
     23. B(H  22,C   8)                  1.1113         0.333028   
     24. B(H  23,C   9)                  1.1102         0.334352   
     25. B(H  24,C   9)                  1.1129         0.331080   
     26. B(H  25,C  10)                  1.1233         0.318623   
     27. B(H  26,C  10)                  1.1110         0.333384   
     28. B(H  27,C  11)                  1.1123         0.331785   
     29. B(H  28,C  11)                  1.1080         0.337070   
     30. B(H  29,C  12)                  1.1115         0.332719   
     31. B(H  30,C  12)                  1.1198         0.322707   
     32. B(H  31,C  13)                  1.1090         0.335773   
     33. B(H  32,C  13)                  1.1122         0.331864   
     34. B(H  33,C  14)                  1.1173         0.325787   
     35. B(H  34,C  14)                  1.1105         0.333958   
     36. B(C  35,C  14)                  1.6146         0.273777   
     37. B(C  35,C  12)                  1.6220         0.266476   
     38. B(C  35,C  10)                  1.6321         0.256749   
     39. B(H  36,C   8)                  1.1128         0.331152   
     40. B(H  37,C  35)                  1.1164         0.326769   
     41. A(C   4,C   0,C   8)          118.0549         0.413240   
     42. A(C   1,C   0,C   4)          121.5329         0.434894   
     43. A(C   1,C   0,C   8)          117.5450         0.413117   
     44. A(C   0,C   1,C   5)          118.2582         0.437532   
     45. A(C   5,C   1,H  15)          120.2035         0.356575   
     46. A(C   0,C   1,H  15)          120.0488         0.354449   
     47. A(C   3,C   2,C   5)          118.2667         0.437691   
     48. A(C   5,C   2,H  16)          119.6428         0.356299   
     49. A(C   3,C   2,H  16)          120.3148         0.355086   
     50. A(C   2,C   3,C   4)          121.5092         0.436543   
     51. A(C   2,C   3,C   7)          117.2460         0.412364   
     52. A(C   4,C   3,C   7)          118.5727         0.412769   
     53. A(C   3,C   4,H  17)          120.2399         0.355247   
     54. A(C   0,C   4,C   3)          118.1101         0.436000   
     55. A(C   0,C   4,H  17)          120.3070         0.354498   
     56. A(C   1,C   5,C   2)          121.6696         0.439801   
     57. A(C   1,C   5,C   6)          117.7984         0.414625   
     58. A(C   2,C   5,C   6)          117.4070         0.414142   
     59. A(C  13,C   6,H  19)          108.2421         0.312823   
     60. A(C   5,C   6,H  19)          111.3039         0.331196   
     61. A(H  18,C   6,H  19)          108.2734         0.283591   
     62. A(C   5,C   6,H  18)          112.0458         0.331486   
     63. A(C  13,C   6,H  18)          111.9204         0.313091   
     64. A(C   5,C   6,C  13)          105.0043         0.367913   
     65. A(C   3,C   7,H  20)          111.5006         0.331022   
     66. A(C   3,C   7,H  21)          111.6257         0.331263   
     67. A(C  11,C   7,H  20)          108.6086         0.314110   
     68. A(H  20,C   7,H  21)          108.5114         0.283637   
     69. A(C  11,C   7,H  21)          111.6276         0.314335   
     70. A(C   3,C   7,C  11)          104.9270         0.369193   
     71. A(C   0,C   8,C   9)          104.6976         0.372005   
     72. A(C   9,C   8,H  36)          108.3892         0.315332   
     73. A(C   9,C   8,H  22)          112.0443         0.315622   
     74. A(C   0,C   8,H  22)          112.0707         0.332295   
     75. A(H  22,C   8,H  36)          108.3206         0.283574   
     76. A(C   0,C   8,H  36)          111.2664         0.331984   
     77. A(C   8,C   9,C  10)          117.3060         0.347838   
     78. A(H  23,C   9,H  24)          105.9289         0.283740   
     79. A(C  10,C   9,H  24)          108.1541         0.311224   
     80. A(C   8,C   9,H  24)          104.9130         0.315321   
     81. A(C  10,C   9,H  23)          108.0601         0.311720   
     82. A(C   8,C   9,H  23)          111.8074         0.315825   
     83. A(H  25,C  10,C  35)          107.9896         0.299264   
     84. A(C   9,C  10,C  35)          126.2685         0.331571   
     85. A(H  26,C  10,C  35)          109.1214         0.301430   
     86. A(H  25,C  10,H  26)          104.4277         0.281930   
     87. A(C   9,C  10,H  26)          107.8566         0.311574   
     88. A(C   9,C  10,H  25)           98.8206         0.309304   
     89. A(H  27,C  11,H  28)          105.2039         0.284191   
     90. A(C  12,C  11,H  28)          107.7530         0.311882   
     91. A(C   7,C  11,H  28)          111.1340         0.314946   
     92. A(C  12,C  11,H  27)          107.6369         0.311086   
     93. A(C   7,C  11,H  27)          105.7422         0.314140   
     94. A(C   7,C  11,C  12)          118.5168         0.346079   
     95. A(H  29,C  12,H  30)          105.2968         0.282399   
     96. A(C  11,C  12,H  30)          100.4254         0.309696   
     97. A(C  11,C  12,H  29)          106.2638         0.311227   
     98. A(H  30,C  12,C  35)          106.7841         0.301653   
     99. A(H  29,C  12,C  35)          107.6285         0.303129   
    100. A(C  11,C  12,C  35)          128.3125         0.333351   
    101. A(H  31,C  13,H  32)          105.7657         0.284031   
    102. A(C  14,C  13,H  32)          107.5765         0.309675   
    103. A(C   6,C  13,H  32)          104.8890         0.312913   
    104. A(C  14,C  13,H  31)          107.6724         0.310261   
    105. A(C   6,C  13,H  31)          111.0259         0.313508   
    106. A(C   6,C  13,C  14)          119.0695         0.343027   
    107. A(H  33,C  14,H  34)          104.9301         0.282979   
    108. A(C  13,C  14,H  34)          108.4029         0.309990   
    109. A(C  13,C  14,H  33)          100.8850         0.308754   
    110. A(H  34,C  14,C  35)          108.6853         0.304624   
    111. A(H  33,C  14,C  35)          105.6745         0.303418   
    112. A(C  13,C  14,C  35)          126.1138         0.333275   
    113. A(C  14,C  35,H  37)           93.4954         0.303565   
    114. A(C  12,C  35,H  37)           87.9118         0.302256   
    115. A(C  10,C  35,H  37)           86.1949         0.300469   
    116. A(C  12,C  35,C  14)          122.7663         0.325891   
    117. A(C  10,C  35,C  14)          119.4029         0.323905   
    118. A(C  10,C  35,C  12)          117.7806         0.322473   
    119. D(C   5,C   1,C   0,C   4)      4.2302         0.026852   
    120. D(H  15,C   1,C   0,C   4)    170.3401         0.026852   
    121. D(H  15,C   1,C   0,C   8)      9.8874         0.026852   
    122. D(C   5,C   1,C   0,C   8)   -156.2226         0.026852   
    123. D(C   4,C   3,C   2,C   5)     -7.9014         0.027346   
    124. D(C   7,C   3,C   2,C   5)    153.3021         0.027346   
    125. D(C   4,C   3,C   2,H  16)   -172.6737         0.027346   
    126. D(C   7,C   3,C   2,H  16)    -11.4701         0.027346   
    127. D(C   0,C   4,C   3,C   2)      5.1825         0.027670   
    128. D(H  17,C   4,C   3,C   2)    171.9949         0.027670   
    129. D(H  17,C   4,C   0,C   8)     -9.7535         0.026948   
    130. D(C   0,C   4,C   3,C   7)   -155.7801         0.027670   
    131. D(H  17,C   4,C   0,C   1)   -170.1105         0.026948   
    132. D(H  17,C   4,C   3,C   7)     11.0323         0.027670   
    133. D(C   3,C   4,C   0,C   8)    157.0497         0.026948   
    134. D(C   3,C   4,C   0,C   1)     -3.3073         0.026948   
    135. D(C   6,C   5,C   2,H  16)     14.1949         0.028543   
    136. D(C   1,C   5,C   2,H  16)    173.7640         0.028543   
    137. D(C   6,C   5,C   1,H  15)    -13.6861         0.028946   
    138. D(C   6,C   5,C   1,C   0)    152.4016         0.028946   
    139. D(C   1,C   5,C   2,C   3)      8.8866         0.028543   
    140. D(C   6,C   5,C   2,C   3)   -150.6825         0.028543   
    141. D(C   2,C   5,C   1,H  15)   -173.1788         0.028946   
    142. D(C   2,C   5,C   1,C   0)     -7.0911         0.028946   
    143. D(C  13,C   6,C   5,C   1)   -100.2076         0.015681   
    144. D(H  19,C   6,C   5,C   1)     16.6884         0.015681   
    145. D(H  19,C   6,C   5,C   2)    177.0638         0.015681   
    146. D(C  13,C   6,C   5,C   2)     60.1678         0.015681   
    147. D(H  18,C   6,C   5,C   2)    -61.5358         0.015681   
    148. D(H  18,C   6,C   5,C   1)    138.0888         0.015681   
    149. D(C  11,C   7,C   3,C   2)    -57.8016         0.015552   
    150. D(H  21,C   7,C   3,C   4)   -134.9642         0.015552   
    151. D(H  21,C   7,C   3,C   2)     63.2636         0.015552   
    152. D(H  20,C   7,C   3,C   4)    -13.4139         0.015552   
    153. D(H  20,C   7,C   3,C   2)   -175.1861         0.015552   
    154. D(C  11,C   7,C   3,C   4)    103.9706         0.015552   
    155. D(H  36,C   8,C   0,C   4)     16.4165         0.016150   
    156. D(H  36,C   8,C   0,C   1)    177.5629         0.016150   
    157. D(H  22,C   8,C   0,C   4)    137.8685         0.016150   
    158. D(C   9,C   8,C   0,C   4)   -100.4596         0.016150   
    159. D(H  22,C   8,C   0,C   1)    -60.9851         0.016150   
    160. D(C   9,C   8,C   0,C   1)     60.6868         0.016150   
    161. D(H  24,C   9,C   8,H  36)     55.3103         0.009462   
    162. D(H  24,C   9,C   8,H  22)    -64.1612         0.009462   
    163. D(H  24,C   9,C   8,C   0)    174.1495         0.009462   
    164. D(H  23,C   9,C   8,H  36)    169.6699         0.009462   
    165. D(H  23,C   9,C   8,H  22)     50.1984         0.009462   
    166. D(H  23,C   9,C   8,C   0)    -71.4909         0.009462   
    167. D(C  10,C   9,C   8,H  36)    -64.7137         0.009462   
    168. D(C  10,C   9,C   8,H  22)    175.8148         0.009462   
    169. D(C  10,C   9,C   8,C   0)     54.1255         0.009462   
    170. D(C  35,C  10,C   9,H  24)    164.8343         0.008187   
    171. D(H  26,C  10,C   9,H  23)   -177.8689         0.008187   
    172. D(H  26,C  10,C   9,C   8)     54.6799         0.008187   
    173. D(H  25,C  10,C   9,H  24)     44.7348         0.008187   
    174. D(H  26,C  10,C   9,H  24)    -63.6195         0.008187   
    175. D(H  25,C  10,C   9,H  23)    -69.5146         0.008187   
    176. D(C  35,C  10,C   9,C   8)    -76.8663         0.008187   
    177. D(H  25,C  10,C   9,C   8)    163.0342         0.008187   
    178. D(C  35,C  10,C   9,H  23)     50.5849         0.008187   
    179. D(C  12,C  11,C   7,H  21)   -176.7751         0.009038   
    180. D(C  12,C  11,C   7,H  20)     63.6291         0.009038   
    181. D(C  12,C  11,C   7,C   3)    -55.7112         0.009038   
    182. D(H  28,C  11,C   7,H  21)    -51.1791         0.009038   
    183. D(H  28,C  11,C   7,H  20)   -170.7749         0.009038   
    184. D(H  28,C  11,C   7,C   3)     69.8848         0.009038   
    185. D(H  27,C  11,C   7,H  21)     62.4669         0.009038   
    186. D(H  27,C  11,C   7,H  20)    -57.1289         0.009038   
    187. D(H  27,C  11,C   7,C   3)   -176.4692         0.009038   
    188. D(C  35,C  12,C  11,H  28)    -59.3203         0.008117   
    189. D(C  35,C  12,C  11,H  27)   -172.3207         0.008117   
    190. D(C  35,C  12,C  11,C   7)     67.8946         0.008117   
    191. D(H  30,C  12,C  11,H  28)     61.9834         0.008117   
    192. D(H  30,C  12,C  11,H  27)    -51.0170         0.008117   
    193. D(H  30,C  12,C  11,C   7)   -170.8017         0.008117   
    194. D(H  29,C  12,C  11,H  28)    171.4408         0.008117   
    195. D(H  29,C  12,C  11,H  27)     58.4404         0.008117   
    196. D(H  29,C  12,C  11,C   7)    -61.3443         0.008117   
    197. D(H  32,C  13,C   6,H  18)    -63.9497         0.008651   
    198. D(H  32,C  13,C   6,C   5)    174.2650         0.008651   
    199. D(H  31,C  13,C   6,H  19)    169.0834         0.008651   
    200. D(H  31,C  13,C   6,H  18)     49.8409         0.008651   
    201. D(H  31,C  13,C   6,C   5)    -71.9445         0.008651   
    202. D(C  14,C  13,C   6,H  19)    -65.0586         0.008651   
    203. D(C  14,C  13,C   6,H  18)    175.6989         0.008651   
    204. D(H  32,C  13,C   6,H  19)     55.2928         0.008651   
    205. D(C  14,C  13,C   6,C   5)     53.9135         0.008651   
    206. D(C  35,C  14,C  13,H  32)    164.8023         0.007724   
    207. D(C  35,C  14,C  13,C   6)    -76.2202         0.007724   
    208. D(H  34,C  14,C  13,H  32)    -63.8453         0.007724   
    209. D(H  34,C  14,C  13,H  31)   -177.4267         0.007724   
    210. D(H  34,C  14,C  13,C   6)     55.1322         0.007724   
    211. D(H  33,C  14,C  13,H  32)     46.0609         0.007724   
    212. D(C  35,C  14,C  13,H  31)     51.2210         0.007724   
    213. D(H  33,C  14,C  13,H  31)    -67.5205         0.007724   
    214. D(H  33,C  14,C  13,C   6)    165.0384         0.007724   
    215. D(H  37,C  35,C  14,H  33)    -26.7691         0.006430   
    216. D(H  37,C  35,C  14,C  13)   -143.3531         0.006430   
    217. D(C  12,C  35,C  14,H  34)    175.1675         0.006430   
    218. D(C  12,C  35,C  14,C  13)    -53.5880         0.006430   
    219. D(C  10,C  35,C  14,H  34)     -2.1964         0.006430   
    220. D(C  10,C  35,C  14,H  33)   -114.3680         0.006430   
    221. D(C  10,C  35,C  14,C  13)    129.0481         0.006430   
    222. D(H  37,C  35,C  12,H  30)     36.6021         0.006153   
    223. D(H  37,C  35,C  12,H  29)    -76.0403         0.006153   
    224. D(H  37,C  35,C  12,C  11)    155.2347         0.006153   
    225. D(C  14,C  35,C  12,H  30)    -56.2114         0.006153   
    226. D(C  14,C  35,C  12,H  29)   -168.8538         0.006153   
    227. D(C  14,C  35,C  12,C  11)     62.4212         0.006153   
    228. D(C  10,C  35,C  12,H  30)    121.1929         0.006153   
    229. D(C  10,C  35,C  12,H  29)      8.5505         0.006153   
    230. D(C  10,C  35,C  12,C  11)   -120.1745         0.006153   
    231. D(H  37,C  35,C  10,H  26)     86.6055         0.005798   
    232. D(H  37,C  35,C  10,H  25)    -26.3392         0.005798   
    233. D(H  37,C  35,C  10,C   9)   -142.3297         0.005798   
    234. D(C  14,C  35,C  10,H  26)    178.4769         0.005798   
    235. D(C  14,C  35,C  10,H  25)     65.5322         0.005798   
    236. D(C  12,C  35,C  14,H  33)     62.9960         0.006430   
    237. D(C  14,C  35,C  10,C   9)    -50.4582         0.005798   
    238. D(C  12,C  35,C  10,H  26)      0.9823         0.005798   
    239. D(C  12,C  35,C  10,H  25)   -111.9625         0.005798   
    240. D(H  37,C  35,C  14,H  34)     85.4024         0.006430   
    241. D(C  12,C  35,C  10,C   9)    132.0471         0.005798   
    -----------------------------------------------------------------

Number of atoms                         .... 38
Number of degrees of freedom            .... 241

         *************************************************************
         *                GEOMETRY OPTIMIZATION CYCLE   1            *
         *************************************************************
---------------------------------
CARTESIAN COORDINATES (ANGSTROEM)
---------------------------------
  C     -2.967090   -2.793800   -3.423200
  C     -2.529860   -1.479690   -3.551670
  C     -1.840700   -1.515820   -1.238520
  C     -2.251640   -2.839310   -1.151500
  C     -2.867090   -3.478850   -2.217380
  C     -1.906380   -0.889190   -2.469750
  C     -0.930370    0.180190   -2.739030
  C     -1.653790   -3.662720   -0.085400
  C     -3.125260   -3.580280   -4.653370
  C     -1.705140   -3.616730   -5.283370
  C     -0.524750   -4.133590   -4.376030
  C     -0.115760   -3.600800   -0.344260
  C      0.427750   -4.035630   -1.759690
  C      0.471550   -0.511670   -2.624650
  C      0.763890   -1.807180   -3.489840
  H     -2.472740   -1.019900   -4.531900
  H     -1.257720   -1.070520   -0.440910
  H     -3.062610   -4.544710   -2.175670
  H     -1.033820    1.028030   -2.028120
  H     -1.039890    0.576500   -3.772990
  H     -1.983230   -4.722930   -0.155880
  H     -1.915030   -3.278450    0.924040
  H     -3.875270   -3.133580   -5.341030
  H     -1.412910   -2.629650   -5.699070
  H     -1.796580   -4.300830   -6.156370
  H      0.232240   -4.340810   -5.179680
  H     -0.804160   -5.138410   -3.993210
  H      0.345150   -4.271210    0.414230
  H      0.286260   -2.592250   -0.123240
  H      0.143650   -5.102560   -1.887910
  H      1.529510   -4.045280   -1.559480
  H      0.712430   -0.750550   -1.568770
  H      1.201530    0.269200   -2.931930
  H      1.876140   -1.870720   -3.405400
  H      0.571210   -1.567030   -4.556820
  C      0.217720   -3.296320   -3.188000
  H     -3.436050   -4.624680   -4.427560
  H      1.159780   -3.785700   -3.533640

----------------------------
CARTESIAN COORDINATES (A.U.)
----------------------------
  NO LB      ZA    FRAG     MASS         X           Y           Z
   0 C     6.0000    0    12.011   -5.606988   -5.279517   -6.468911
   1 C     6.0000    0    12.011   -4.780743   -2.796209   -6.711684
   2 C     6.0000    0    12.011   -3.478419   -2.864485   -2.340464
   3 C     6.0000    0    12.011   -4.254983   -5.365518   -2.176020
   4 C     6.0000    0    12.011   -5.418015   -6.574074   -4.190241
   5 C     6.0000    0    12.011   -3.602536   -1.680326   -4.667151
   6 C     6.0000    0    12.011   -1.758145    0.340510   -5.176017
   7 C     6.0000    0    12.011   -3.125210   -6.921538   -0.161383
   8 C     6.0000    0    12.011   -5.905885   -6.765749   -8.793595
   9 C     6.0000    0    12.011   -3.222248   -6.834629   -9.984122
  10 C     6.0000    0    12.011   -0.991634   -7.811353   -8.269498
  11 C     6.0000    0    12.011   -0.218755   -6.804526   -0.650557
  12 C     6.0000    0    12.011    0.808330   -7.626235   -3.325332
  13 C     6.0000    0    12.011    0.891100   -0.966916   -4.959870
  14 C     6.0000    0    12.011    1.443543   -3.415075   -6.594842
  15 H     1.0000    0     1.008   -4.672801   -1.927332   -8.564050
  16 H     1.0000    0     1.008   -2.376746   -2.022990   -0.833199
  17 H     1.0000    0     1.008   -5.787494   -8.588257   -4.111420
  18 H     1.0000    0     1.008   -1.953637    1.942695   -3.832591
  19 H     1.0000    0     1.008   -1.965107    1.089427   -7.129918
  20 H     1.0000    0     1.008   -3.747762   -8.925044   -0.294571
  21 H     1.0000    0     1.008   -3.618882   -6.195373    1.746183
  22 H     1.0000    0     1.008   -7.323199   -5.921608  -10.093084
  23 H     1.0000    0     1.008   -2.670013   -4.969318  -10.769682
  24 H     1.0000    0     1.008   -3.395044   -8.127391  -11.633853
  25 H     1.0000    0     1.008    0.438870   -8.202942   -9.788177
  26 H     1.0000    0     1.008   -1.519642   -9.710188   -7.546073
  27 H     1.0000    0     1.008    0.652239   -8.071417    0.782781
  28 H     1.0000    0     1.008    0.540953   -4.898643   -0.232890
  29 H     1.0000    0     1.008    0.271459   -9.642441   -3.567633
  30 H     1.0000    0     1.008    2.890355   -7.644471   -2.946990
  31 H     1.0000    0     1.008    1.346298   -1.418334   -2.964546
  32 H     1.0000    0     1.008    2.270563    0.508714   -5.540545
  33 H     1.0000    0     1.008    3.545391   -3.535148   -6.435273
  34 H     1.0000    0     1.008    1.079430   -2.961258   -8.611142
  35 C     6.0000    0    12.011    0.411431   -6.229142   -6.024447
  36 H     1.0000    0     1.008   -6.493193   -8.739379   -8.366876
  37 H     1.0000    0     1.008    2.191667   -7.153936   -6.677612

--------------------------------
INTERNAL COORDINATES (ANGSTROEM)
--------------------------------
 C      0   0   0     0.000000000000     0.00000000     0.00000000
 C      1   0   0     1.390884504875     0.00000000     0.00000000
 C      2   1   0     2.413899294710    89.26058103     0.00000000
 C      3   2   1     1.388549582874    89.41716527     1.57725296
 C      4   3   2     1.387043722635   121.50920055   356.41350619
 C      2   1   3     1.381292310411   118.25817818     3.45149533
 C      6   2   1     1.472644160312   117.79843480   152.40158960
 C      4   3   2     1.473769948330   117.24597054   157.61700805
 C      1   2   3     1.468634320789   117.54503060   200.32595149
 C      9   1   2     1.554017186810   104.69757275    60.68684347
 C     10   9   1     1.575985624078   117.30600687    54.12547042
 C      8   4   3     1.560890408357   104.92702445   302.19838639
 C     12   8   4     1.577314912724   118.51683934   304.28881626
 C      7   6   2     1.567524395472   105.00429387   259.79237772
 C     14   7   6     1.585043397450   119.06945199    53.91353791
 H      2   1   3     1.084214181516   120.04875404   169.56142030
 H      3   2   1     1.083669452601   148.51150756   163.34393354
 H      5   4   3     1.084447017655   120.23988486   171.99492465
 H      7   6   2     1.111272962057   112.04583962   138.08883213
 H      7   6   2     1.112712688927   111.30389613    16.68844513
 H      8   4   3     1.112449274394   111.50061631   184.81389851
 H      8   4   3     1.111251044589   111.62565865    63.26360453
 H      9   1   2     1.111275018031   112.07074655   299.01490945
 H     10   9   1     1.110194482647   111.80740572   288.50907695
 H     10   9   1     1.112871548563   104.91298286   174.14946424
 H     11  10   9     1.123310870151    98.82060715   163.03424407
 H     11  10   9     1.110983498032   107.85659108    54.67990907
 H     12   8   4     1.112292531801   105.74221719   183.53082701
 H     12   8   4     1.107990533940   111.13401823    69.88480472
 H     13  12   8     1.111527239117   106.26376001   298.65571976
 H     13  12   8     1.119844750044   100.42542299   189.19830791
 H     14   7   6     1.109039856452   111.02590969   288.05553118
 H     14   7   6     1.112227384890   104.88903794   174.26496550
 H     15  14   7     1.117258925988   100.88502112   165.03839136
 H     15  14   7     1.110515162121   108.40293460    55.13217958
 C     15  14   7     1.614604284058   126.11378977   283.77984250
 H      9   1   2     1.112812625827   111.26635702   177.56290696
 H     36  15  14     1.116439356884    93.49541041   216.64691202

---------------------------
INTERNAL COORDINATES (A.U.)
---------------------------
 C      0   0   0     0.000000000000     0.00000000     0.00000000
 C      1   0   0     2.628390798127     0.00000000     0.00000000
 C      2   1   0     4.561608581867    89.26058103     0.00000000
 C      3   2   1     2.623978435003    89.41716527     1.57725296
 C      4   3   2     2.621132771554   121.50920055   356.41350619
 C      2   1   3     2.610264177568   118.25817818     3.45149533
 C      6   2   1     2.782894155707   117.79843480   152.40158960
 C      4   3   2     2.785021586747   117.24597054   157.61700805
 C      1   2   3     2.775316657169   117.54503060   200.32595149
 C      9   1   2     2.936666890477   104.69757275    60.68684347
 C     10   9   1     2.978181220504   117.30600687    54.12547042
 C      8   4   3     2.949655396859   104.92702445   302.19838639
 C     12   8   4     2.980693211997   118.51683934   304.28881626
 C      7   6   2     2.962191815683   105.00429387   259.79237772
 C     14   7   6     2.995297931561   119.06945199    53.91353791
 H      2   1   3     2.048867873578   120.04875404   169.56142030
 H      3   2   1     2.047838485112   148.51150756   163.34393354
 H      5   4   3     2.049307870115   120.23988486   171.99492465
 H      7   6   2     2.100001558320   112.04583962   138.08883213
 H      7   6   2     2.102722247812   111.30389613    16.68844513
 H      8   4   3     2.102224466484   111.50061631   184.81389851
 H      8   4   3     2.099960140307   111.62565865    63.26360453
 H      9   1   2     2.100005443547   112.07074655   299.01490945
 H     10   9   1     2.097963527593   111.80740572   288.50907695
 H     10   9   1     2.103022449016   104.91298286   174.14946424
 H     11  10   9     2.122749907843    98.82060715   163.03424407
 H     11  10   9     2.099454550587   107.85659108    54.67990907
 H     12   8   4     2.101928265910   105.74221719   183.53082701
 H     12   8   4     2.093798668123   111.13401823    69.88480472
 H     13  12   8     2.100482072326   106.26376001   298.65571976
 H     13  12   8     2.116199890092   100.42542299   189.19830791
 H     14   7   6     2.095781600298   111.02590969   288.05553118
 H     14   7   6     2.101805156090   104.88903794   174.26496550
 H     15  14   7     2.111313390796   100.88502112   165.03839136
 H     15  14   7     2.098569523975   108.40293460    55.13217958
 C     15  14   7     3.051159911527   126.11378977   283.77984250
 H      9   1   2     2.102911101183   111.26635702   177.56290696
 H     36  15  14     2.109764629642    93.49541041   216.64691202

---------------------
BASIS SET INFORMATION
---------------------
There are 2 groups of distinct atoms

 Group   1 Type C   : 8s4p1d contracted to 4s2p1d pattern {5111/31/1}
 Group   2 Type H   : 4s contracted to 2s pattern {31}

Atom   0C    basis set group =>   1
Atom   1C    basis set group =>   1
Atom   2C    basis set group =>   1
Atom   3C    basis set group =>   1
Atom   4C    basis set group =>   1
Atom   5C    basis set group =>   1
Atom   6C    basis set group =>   1
Atom   7C    basis set group =>   1
Atom   8C    basis set group =>   1
Atom   9C    basis set group =>   1
Atom  10C    basis set group =>   1
Atom  11C    basis set group =>   1
Atom  12C    basis set group =>   1
Atom  13C    basis set group =>   1
Atom  14C    basis set group =>   1
Atom  15H    basis set group =>   2
Atom  16H    basis set group =>   2
Atom  17H    basis set group =>   2
Atom  18H    basis set group =>   2
Atom  19H    basis set group =>   2
Atom  20H    basis set group =>   2
Atom  21H    basis set group =>   2
Atom  22H    basis set group =>   2
Atom  23H    basis set group =>   2
Atom  24H    basis set group =>   2
Atom  25H    basis set group =>   2
Atom  26H    basis set group =>   2
Atom  27H    basis set group =>   2
Atom  28H    basis set group =>   2
Atom  29H    basis set group =>   2
Atom  30H    basis set group =>   2
Atom  31H    basis set group =>   2
Atom  32H    basis set group =>   2
Atom  33H    basis set group =>   2
Atom  34H    basis set group =>   2
Atom  35C    basis set group =>   1
Atom  36H    basis set group =>   2
Atom  37H    basis set group =>   2
---------------------------------
AUXILIARY/J BASIS SET INFORMATION
---------------------------------
There are 2 groups of distinct atoms

 Group   1 Type C   : 12s5p4d2f1g contracted to 6s4p3d1f1g pattern {711111/2111/211/2/1}
 Group   2 Type H   : 5s2p1d contracted to 3s1p1d pattern {311/2/1}

Atom   0C    basis set group =>   1
Atom   1C    basis set group =>   1
Atom   2C    basis set group =>   1
Atom   3C    basis set group =>   1
Atom   4C    basis set group =>   1
Atom   5C    basis set group =>   1
Atom   6C    basis set group =>   1
Atom   7C    basis set group =>   1
Atom   8C    basis set group =>   1
Atom   9C    basis set group =>   1
Atom  10C    basis set group =>   1
Atom  11C    basis set group =>   1
Atom  12C    basis set group =>   1
Atom  13C    basis set group =>   1
Atom  14C    basis set group =>   1
Atom  15H    basis set group =>   2
Atom  16H    basis set group =>   2
Atom  17H    basis set group =>   2
Atom  18H    basis set group =>   2
Atom  19H    basis set group =>   2
Atom  20H    basis set group =>   2
Atom  21H    basis set group =>   2
Atom  22H    basis set group =>   2
Atom  23H    basis set group =>   2
Atom  24H    basis set group =>   2
Atom  25H    basis set group =>   2
Atom  26H    basis set group =>   2
Atom  27H    basis set group =>   2
Atom  28H    basis set group =>   2
Atom  29H    basis set group =>   2
Atom  30H    basis set group =>   2
Atom  31H    basis set group =>   2
Atom  32H    basis set group =>   2
Atom  33H    basis set group =>   2
Atom  34H    basis set group =>   2
Atom  35C    basis set group =>   1
Atom  36H    basis set group =>   2
Atom  37H    basis set group =>   2
------------------------------------------------------------------------------
                           ORCA GTO INTEGRAL CALCULATION
                           -- RI-GTO INTEGRALS CHOSEN --
------------------------------------------------------------------------------
------------------------------------------------------------------------------
                   ___                                                        
                  /   \      - P O W E R E D   B Y -                         
                 /     \                                                     
                 |  |  |   _    _      __       _____    __    __             
                 |  |  |  | |  | |    /  \     |  _  \  |  |  /  |          
                  \  \/   | |  | |   /    \    | | | |  |  | /  /          
                 / \  \   | |__| |  /  /\  \   | |_| |  |  |/  /          
                |  |  |   |  __  | /  /__\  \  |    /   |      \           
                |  |  |   | |  | | |   __   |  |    \   |  |\   \          
                \     /   | |  | | |  |  |  |  | |\  \  |  | \   \       
                 \___/    |_|  |_| |__|  |__|  |_| \__\ |__|  \__/        
                                                                              
                      - O R C A' S   B I G   F R I E N D -                    
                                      &                                       
                       - I N T E G R A L  F E E D E R -                       
                                                                              
 v1 FN, 2020, v2 2021                                                         
------------------------------------------------------------------------------


Reading SHARK input file I.SHARKINP.tmp ... ok
----------------------
SHARK INTEGRAL PACKAGE
----------------------

Number of atoms                             ...     38
Number of basis functions                   ...    284
Number of shells                            ...    156
Maximum angular momentum                    ...      2
Integral batch strategy                     ... SHARK/LIBINT Hybrid
RI-J (if used) integral strategy            ... SPLIT-RIJ (Revised 2003 algorithm where possible)
Printlevel                                  ...      1
Contraction scheme used                     ... SEGMENTED contraction
Coulomb Range Separation                    ... NOT USED
Exchange Range Separation                   ... NOT USED
Finite Nucleus Model                        ... NOT USED
Auxiliary Coulomb fitting basis             ... AVAILABLE
   # of basis functions in Aux-J            ...   1026
   # of shells in Aux-J                     ...    350
   Maximum angular momentum in Aux-J        ...      4
Auxiliary J/K fitting basis                 ... NOT available
Auxiliary Correlation fitting basis         ... NOT available
Auxiliary 'external' fitting basis          ... NOT available
Integral threshold                          ...     2.500000e-11
Primitive cut-off                           ...     2.500000e-12
Primitive pair pre-selection threshold      ...     2.500000e-12

Calculating pre-screening integrals         ... done (  0.0 sec) Dimension = 156
Organizing shell pair data                  ... done (  0.0 sec)
Shell pair information
Total number of shell pairs                 ...     12246
Shell pairs after pre-screening             ...     10502
Total number of primitive shell pairs       ...     44230
Primitive shell pairs kept                  ...     24697
          la=0 lb=0:   4677 shell pairs
          la=1 lb=0:   3248 shell pairs
          la=1 lb=1:    528 shell pairs
          la=2 lb=0:   1407 shell pairs
          la=2 lb=1:    510 shell pairs
          la=2 lb=2:    132 shell pairs

Calculating one electron integrals          ... done (  0.1 sec)
Calculating RI/J V-Matrix + Cholesky decomp.... done (  0.0 sec)
Calculating Nuclear repulsion               ... done (  0.0 sec) ENN=   1183.846350064872 Eh

SHARK setup successfully completed in   0.3 seconds

Maximum memory used throughout the entire GTOINT-calculation: 57.1 MB
-------------------------------------------------------------------------------
                                 ORCA SCF
-------------------------------------------------------------------------------

------------
SCF SETTINGS
------------
Hamiltonian:
 Density Functional     Method          .... DFT(GTOs)
 Exchange Functional    Exchange        .... PBE
   PBE kappa parameter   XKappa         ....  1.024500
   PBE mue parameter    XMuePBE         ....  0.123457
 Correlation Functional Correlation     .... PBE
   PBE beta parameter  CBetaPBE         ....  0.030000
 LDA part of GGA corr.  LDAOpt          .... PW91-LDA
 Gradients option       PostSCFGGA      .... off
 Hybrid DFT is turned on
   Fraction HF Exchange ScalHFX         ....  0.420000
   Scaling of DF-GGA-X  ScalDFX         ....  0.580000
   Scaling of DF-GGA-C  ScalDFC         ....  1.000000
   Scaling of DF-LDA-C  ScalLDAC        ....  1.000000
   Perturbative correction              ....  0.000000
   Density functional embedding theory  .... OFF
 RI-approximation to the Coulomb term is turned on
   Number of AuxJ basis functions       .... 1026
   RIJ-ON(X) (HFX calculated with O(N)) .... on
   Number of AuxJ basis functions       .... 1026
   RIJ-COSX (HFX calculated with COS-X)).... on


General Settings:
 Integral files         IntName         .... I
 Hartree-Fock type      HFTyp           .... RHF
 Total Charge           Charge          ....    0
 Multiplicity           Mult            ....    1
 Number of Electrons    NEL             ....  118
 Basis Dimension        Dim             ....  284
 Nuclear Repulsion      ENuc            ....   1183.8463500649 Eh

Convergence Acceleration:
 DIIS                   CNVDIIS         .... on
   Start iteration      DIISMaxIt       ....    12
   Startup error        DIISStart       ....  0.200000
   # of expansion vecs  DIISMaxEq       ....     5
   Bias factor          DIISBfac        ....   1.050
   Max. coefficient     DIISMaxC        ....  10.000
 Trust-Rad. Augm. Hess. CNVTRAH         .... auto
   Auto Start mean grad. ratio tolernc. ....  1.125000
   Auto Start start iteration           ....    20
   Auto Start num. interpolation iter.  ....    10
   Max. Number of Micro iterations      ....    16
   Max. Number of Macro iterations      .... Maxiter - #DIIS iter
   Number of Davidson start vectors     ....     2
   Converg. threshold I  (grad. norm)   ....   1.000e-05
   Converg. threshold II (energy diff.) ....   1.000e-08
   Grad. Scal. Fac. for Micro threshold ....   0.100
   Minimum threshold for Micro iter.    ....   0.010
   NR start threshold (gradient norm)   ....   0.001
   Initial trust radius                 ....   0.400
   Minimum AH scaling param. (alpha)    ....   1.000
   Maximum AH scaling param. (alpha)    .... 1000.000
   Orbital update algorithm             .... Taylor
   White noise on init. David. guess    .... on
   Maximum white noise                  ....   0.010
   Quad. conv. algorithm                .... NR
   COSX micro iterations for RIJONX calc.... off
 SOSCF                  CNVSOSCF        .... on
   Start iteration      SOSCFMaxIt      ....   150
   Startup grad/error   SOSCFStart      ....  0.003300
 Level Shifting         CNVShift        .... on
   Level shift para.    LevelShift      ....    0.2500
   Turn off err/grad.   ShiftErr        ....    0.0010
 Zerner damping         CNVZerner       .... off
 Static damping         CNVDamp         .... on
   Fraction old density DampFac         ....    0.7000
   Max. Damping (<1)    DampMax         ....    0.9800
   Min. Damping (>=0)   DampMin         ....    0.0000
   Turn off err/grad.   DampErr         ....    0.1000
 Fernandez-Rico         CNVRico         .... off

SCF Procedure:
 Maximum # iterations   MaxIter         ....   125
 SCF integral mode      SCFMode         .... Direct
   Integral package                     .... SHARK and LIBINT hybrid scheme
 Reset frequency        DirectResetFreq ....    20
 Integral Threshold     Thresh          ....  2.500e-11 Eh
 Primitive CutOff       TCut            ....  2.500e-12 Eh

Convergence Tolerance:
 Convergence Check Mode ConvCheckMode   .... Total+1el-Energy
 Convergence forced     ConvForced      .... 0
 Energy Change          TolE            ....  1.000e-08 Eh
 1-El. energy change                    ....  1.000e-05 Eh
 Orbital Gradient       TolG            ....  1.000e-05
 Orbital Rotation angle TolX            ....  1.000e-05
 DIIS Error             TolErr          ....  5.000e-07


Diagonalization of the overlap matrix:
Smallest eigenvalue                        ... 5.142e-04
Time for diagonalization                   ...    0.009 sec
Threshold for overlap eigenvalues          ... 1.000e-08
Number of eigenvalues below threshold      ... 0
Time for construction of square roots      ...    0.003 sec
Total time needed                          ...    0.013 sec

--------------------------------
INITIAL GUESS: MINIMAL BASIS EHT
--------------------------------
The minimal basis has 102 functions
EHT matrix was diagonalized
Basis set overlap was calculated now projecting the orbitals
Using GuessMode=FMatrix for the initial guess
C*T matrix was formed
Effective Fockian was calculated
Effective Fockian was diagonalized
Initial density was built
                      ------------------
                      INITIAL GUESS DONE
                      ------------------
-------------------
DFT GRID GENERATION
-------------------

General Integration Accuracy     IntAcc      ... 4.159
Radial Grid Type                 RadialGrid  ... OptM3 with GC (2021)
Angular Grid (max. ang.)         AngularGrid ... 3 (Lebedev-194)
Angular grid pruning method      GridPruning ... 4 (adaptive)
Weight generation scheme         WeightScheme... Becke
Basis function cutoff            BFCut       ... 1.0000e-11
Integration weight cutoff        WCut        ... 1.0000e-14
Angular grids for H and He will be reduced by one unit
Partially contracted basis set               ... off
Rotationally invariant grid construction     ... off

Total number of grid points                  ...    80969
Total number of batches                      ...     1285
Average number of points per batch           ...       63
Average number of grid points per atom       ...     2131
Time for grid setup =    1.428 sec

--------------------
COSX GRID GENERATION
--------------------

GRIDX 1
-------
General Integration Accuracy     IntAcc      ... 3.816
Radial Grid Type                 RadialGrid  ... OptM3 with GC (2021)
Angular Grid (max. ang.)         AngularGrid ... 1 (Lebedev-50)
Angular grid pruning method      GridPruning ... 4 (adaptive)
Weight generation scheme         WeightScheme... Becke
Basis function cutoff            BFCut       ... 1.0000e-11
Integration weight cutoff        WCut        ... 1.0000e-14
Angular grids for H and He will be reduced by one unit
Partially contracted basis set               ... on
Rotationally invariant grid construction     ... off

Total number of grid points                  ...    20875
Total number of batches                      ...      348
Average number of points per batch           ...       59
Average number of grid points per atom       ...      549
UseSFitting                                  ... on

GRIDX 2
-------
General Integration Accuracy     IntAcc      ... 4.020
Radial Grid Type                 RadialGrid  ... OptM3 with GC (2021)
Angular Grid (max. ang.)         AngularGrid ... 2 (Lebedev-110)
Angular grid pruning method      GridPruning ... 4 (adaptive)
Weight generation scheme         WeightScheme... Becke
Basis function cutoff            BFCut       ... 1.0000e-11
Integration weight cutoff        WCut        ... 1.0000e-14
Angular grids for H and He will be reduced by one unit
Partially contracted basis set               ... on
Rotationally invariant grid construction     ... off

Total number of grid points                  ...    43552
Total number of batches                      ...      702
Average number of points per batch           ...       62
Average number of grid points per atom       ...     1146
UseSFitting                                  ... on

GRIDX 3
-------
General Integration Accuracy     IntAcc      ... 4.338
Radial Grid Type                 RadialGrid  ... OptM3 with GC (2021)
Angular Grid (max. ang.)         AngularGrid ... 3 (Lebedev-194)
Angular grid pruning method      GridPruning ... 4 (adaptive)
Weight generation scheme         WeightScheme... Becke
Basis function cutoff            BFCut       ... 1.0000e-11
Integration weight cutoff        WCut        ... 1.0000e-14
Angular grids for H and He will be reduced by one unit
Partially contracted basis set               ... on
Rotationally invariant grid construction     ... off

Total number of grid points                  ...    94521
Total number of batches                      ...     1495
Average number of points per batch           ...       63
Average number of grid points per atom       ...     2487
UseSFitting                                  ... on

Time for X-Grid setup             =    3.404 sec

--------------
SCF ITERATIONS
--------------
ITER       Energy         Delta-E        Max-DP      RMS-DP      [F,P]     Damp
               ***  Starting incremental Fock matrix formation  ***
  0   -620.2227569093   0.000000000000 0.07391583  0.00250226  0.4333155 0.7000
  1   -620.5992467762  -0.376489866906 0.05235767  0.00186245  0.3073008 0.7000
                      *** Initiating the SOSCF procedure ***
                      *** Re-Reading the Fockian *** 
                      *** Removing any level shift *** 
ITER      Energy       Delta-E        Grad      Rot      Max-DP    RMS-DP
  2   -620.86866182  -0.2694150473  0.003062  0.003062  0.128791  0.004587
               *** Restarting incremental Fock matrix formation ***
  3   -621.51622702  -0.6475651971  0.005514  0.015288  0.020834  0.000828
  4   -621.51941616  -0.0031891393  0.005046  0.009346  0.013389  0.000291
  5   -621.52069207  -0.0012759092  0.001238  0.001261  0.003081  0.000125
  6   -621.52076586  -0.0000737891  0.000229  0.000710  0.001282  0.000026
  7   -621.52077005  -0.0000041893  0.000251  0.000489  0.000413  0.000011
  8   -621.52077179  -0.0000017392  0.000085  0.000167  0.000231  0.000005
  9   -621.52077197  -0.0000001845  0.000049  0.000083  0.000091  0.000002
 10   -621.52077204  -0.0000000734  0.000012  0.000019  0.000047  0.000001
 11   -621.52077204   0.0000000054  0.000006  0.000010  0.000024  0.000000
                  ***Gradient check signals convergence***
              ***Rediagonalizing the Fockian in SOSCF/NRSCF***

               *****************************************************
               *                     SUCCESS                       *
               *           SCF CONVERGED AFTER  12 CYCLES          *
               *****************************************************

Old exchange energy                            =    -38.063049481 Eh
New exchange energy                            =    -38.063094836 Eh
Exchange energy change after final integration =     -0.000045354 Eh
Total energy after final integration           =   -621.520817407 Eh
Final COS-X integration done in                =    34.217 sec

----------------
TOTAL SCF ENERGY
----------------

Total Energy       :         -621.52081741 Eh          -16912.44125 eV

Components:
Nuclear Repulsion  :         1183.84635006 Eh           32214.09692 eV
Electronic Energy  :        -1805.36716747 Eh          -49126.53817 eV
One Electron Energy:        -3190.99460410 Eh          -86831.37760 eV
Two Electron Energy:         1385.62743663 Eh           37704.83943 eV
Max COSX asymmetry :            0.00000412 Eh               0.00011 eV

Virial components:
Potential Energy   :        -1237.18940330 Eh          -33665.63519 eV
Kinetic Energy     :          615.66858590 Eh           16753.19394 eV
Virial Ratio       :            2.00950549


DFT components:
N(Alpha)           :       59.000552801044 electrons
N(Beta)            :       59.000552801044 electrons
N(Total)           :      118.001105602088 electrons
E(X)               :      -50.488627700565 Eh       
E(C)               :       -5.092971165831 Eh       
E(XC)              :      -55.581598866396 Eh       
DFET-embed. en.    :        0.000000000000 Eh       

---------------
SCF CONVERGENCE
---------------

  Last Energy change         ...   -1.3092e-08  Tolerance :   1.0000e-08
  Last MAX-Density change    ...    2.1094e-15  Tolerance :   1.0000e-07
  Last RMS-Density change    ...    3.0333e-17  Tolerance :   5.0000e-09
  Last Orbital Gradient      ...    1.5634e-06  Tolerance :   1.0000e-05
  Last Orbital Rotation      ...    1.6938e-06  Tolerance :   1.0000e-05

             **** THE GBW FILE WAS UPDATED (I.gbw) ****
             **** DENSITY I.scfp WAS UPDATED ****
             **** ENERGY FILE WAS UPDATED (I.en.tmp) ****
             **** THE GBW FILE WAS UPDATED (I.gbw) ****
             **** DENSITY I.scfp WAS UPDATED ****
----------------
ORBITAL ENERGIES
----------------

  NO   OCC          E(Eh)            E(eV) 
   0   2.0000     -10.460400      -284.6420 
   1   2.0000     -10.452836      -284.4361 
   2   2.0000     -10.452559      -284.4286 
   3   2.0000     -10.450989      -284.3859 
   4   2.0000     -10.443794      -284.1901 
   5   2.0000     -10.440264      -284.0940 
   6   2.0000     -10.439928      -284.0849 
   7   2.0000     -10.438896      -284.0568 
   8   2.0000     -10.438214      -284.0382 
   9   2.0000     -10.438151      -284.0365 
  10   2.0000     -10.437454      -284.0176 
  11   2.0000     -10.436010      -283.9783 
  12   2.0000     -10.433950      -283.9222 
  13   2.0000     -10.423294      -283.6323 
  14   2.0000     -10.422685      -283.6157 
  15   2.0000     -10.422636      -283.6143 
  16   2.0000      -0.965118       -26.2622 
  17   2.0000      -0.898526       -24.4501 
  18   2.0000      -0.895272       -24.3616 
  19   2.0000      -0.883400       -24.0385 
  20   2.0000      -0.816261       -22.2116 
  21   2.0000      -0.814423       -22.1616 
  22   2.0000      -0.812619       -22.1125 
  23   2.0000      -0.752840       -20.4858 
  24   2.0000      -0.750097       -20.4112 
  25   2.0000      -0.705395       -19.1948 
  26   2.0000      -0.675883       -18.3917 
  27   2.0000      -0.669153       -18.2086 
  28   2.0000      -0.622756       -16.9461 
  29   2.0000      -0.605845       -16.4859 
  30   2.0000      -0.585596       -15.9349 
  31   2.0000      -0.559536       -15.2257 
  32   2.0000      -0.542871       -14.7723 
  33   2.0000      -0.528171       -14.3723 
  34   2.0000      -0.512899       -13.9567 
  35   2.0000      -0.499403       -13.5895 
  36   2.0000      -0.487840       -13.2748 
  37   2.0000      -0.483139       -13.1469 
  38   2.0000      -0.473474       -12.8839 
  39   2.0000      -0.470559       -12.8046 
  40   2.0000      -0.458605       -12.4793 
  41   2.0000      -0.453078       -12.3289 
  42   2.0000      -0.441283       -12.0079 
  43   2.0000      -0.435530       -11.8514 
  44   2.0000      -0.418296       -11.3824 
  45   2.0000      -0.413276       -11.2458 
  46   2.0000      -0.398106       -10.8330 
  47   2.0000      -0.396199       -10.7811 
  48   2.0000      -0.389335       -10.5943 
  49   2.0000      -0.387710       -10.5501 
  50   2.0000      -0.381914       -10.3924 
  51   2.0000      -0.372377       -10.1329 
  52   2.0000      -0.369834       -10.0637 
  53   2.0000      -0.360177        -9.8009 
  54   2.0000      -0.345901        -9.4124 
  55   2.0000      -0.338467        -9.2102 
  56   2.0000      -0.299758        -8.1568 
  57   2.0000      -0.261919        -7.1272 
  58   2.0000      -0.256937        -6.9916 
  59   0.0000       0.023997         0.6530 
  60   0.0000       0.034438         0.9371 
  61   0.0000       0.100845         2.7441 
  62   0.0000       0.125300         3.4096 
  63   0.0000       0.135985         3.7003 
  64   0.0000       0.143198         3.8966 
  65   0.0000       0.149805         4.0764 
  66   0.0000       0.162031         4.4091 
  67   0.0000       0.167795         4.5659 
  68   0.0000       0.172775         4.7014 
  69   0.0000       0.176575         4.8049 
  70   0.0000       0.184606         5.0234 
  71   0.0000       0.189972         5.1694 
  72   0.0000       0.196323         5.3422 
  73   0.0000       0.197802         5.3825 
  74   0.0000       0.205126         5.5818 
  75   0.0000       0.207993         5.6598 
  76   0.0000       0.214743         5.8434 
  77   0.0000       0.215471         5.8633 
  78   0.0000       0.217893         5.9292 
  79   0.0000       0.225773         6.1436 
  80   0.0000       0.229934         6.2568 
  81   0.0000       0.239802         6.5253 
  82   0.0000       0.246877         6.7179 
  83   0.0000       0.249534         6.7902 
  84   0.0000       0.260204         7.0805 
  85   0.0000       0.273226         7.4349 
  86   0.0000       0.274400         7.4668 
  87   0.0000       0.287729         7.8295 
  88   0.0000       0.296857         8.0779 
  89   0.0000       0.306441         8.3387 
  90   0.0000       0.309041         8.4094 
  91   0.0000       0.311327         8.4716 
  92   0.0000       0.317634         8.6433 
  93   0.0000       0.331839         9.0298 
  94   0.0000       0.357836         9.7372 
  95   0.0000       0.363858         9.9011 
  96   0.0000       0.386420        10.5150 
  97   0.0000       0.399267        10.8646 
  98   0.0000       0.426948        11.6179 
  99   0.0000       0.432633        11.7726 
 100   0.0000       0.438414        11.9298 
 101   0.0000       0.481209        13.0944 
 102   0.0000       0.486488        13.2380 
 103   0.0000       0.496359        13.5066 
 104   0.0000       0.523454        14.2439 
 105   0.0000       0.532523        14.4907 
 106   0.0000       0.542222        14.7546 
 107   0.0000       0.552577        15.0364 
 108   0.0000       0.557725        15.1765 
 109   0.0000       0.567438        15.4408 
 110   0.0000       0.574607        15.6359 
 111   0.0000       0.588496        16.0138 
 112   0.0000       0.591152        16.0861 
 113   0.0000       0.597085        16.2475 
 114   0.0000       0.617129        16.7929 
 115   0.0000       0.627966        17.0878 
 116   0.0000       0.635724        17.2989 
 117   0.0000       0.640429        17.4270 
 118   0.0000       0.647319        17.6144 
 119   0.0000       0.654583        17.8121 
 120   0.0000       0.660150        17.9636 
 121   0.0000       0.690041        18.7770 
 122   0.0000       0.693551        18.8725 
 123   0.0000       0.695430        18.9236 
 124   0.0000       0.703029        19.1304 
 125   0.0000       0.713174        19.4064 
 126   0.0000       0.717621        19.5275 
 127   0.0000       0.721318        19.6280 
 128   0.0000       0.738559        20.0972 
 129   0.0000       0.748369        20.3642 
 130   0.0000       0.761450        20.7201 
 131   0.0000       0.762894        20.7594 
 132   0.0000       0.782786        21.3007 
 133   0.0000       0.818883        22.2829 
 134   0.0000       0.819336        22.2953 
 135   0.0000       0.834597        22.7105 
 136   0.0000       0.851512        23.1708 
 137   0.0000       0.875783        23.8313 
 138   0.0000       0.882070        24.0023 
 139   0.0000       0.891837        24.2681 
 140   0.0000       0.898234        24.4422 
 141   0.0000       0.912822        24.8391 
 142   0.0000       0.930484        25.3198 
 143   0.0000       0.937484        25.5102 
 144   0.0000       0.955373        25.9970 
 145   0.0000       0.964442        26.2438 
 146   0.0000       0.977175        26.5903 
 147   0.0000       0.985991        26.8302 
 148   0.0000       1.000662        27.2294 
 149   0.0000       1.009009        27.4565 
 150   0.0000       1.024316        27.8730 
 151   0.0000       1.026936        27.9443 
 152   0.0000       1.033184        28.1144 
 153   0.0000       1.038487        28.2587 
 154   0.0000       1.049137        28.5485 
 155   0.0000       1.051840        28.6220 
 156   0.0000       1.056347        28.7447 
 157   0.0000       1.060435        28.8559 
 158   0.0000       1.064624        28.9699 
 159   0.0000       1.070380        29.1265 
 160   0.0000       1.076139        29.2832 
 161   0.0000       1.087637        29.5961 
 162   0.0000       1.089329        29.6421 
 163   0.0000       1.092320        29.7235 
 164   0.0000       1.104589        30.0574 
 165   0.0000       1.118421        30.4338 
 166   0.0000       1.136308        30.9205 
 167   0.0000       1.147346        31.2209 
 168   0.0000       1.148525        31.2530 
 169   0.0000       1.184405        32.2293 
 170   0.0000       1.203424        32.7468 
 171   0.0000       1.204947        32.7883 
 172   0.0000       1.227773        33.4094 
 173   0.0000       1.238579        33.7034 
 174   0.0000       1.249968        34.0134 
 175   0.0000       1.264747        34.4155 
 176   0.0000       1.270986        34.5853 
 177   0.0000       1.305322        35.5196 
 178   0.0000       1.324146        36.0318 
 179   0.0000       1.348834        36.7036 
 180   0.0000       1.375668        37.4338 
 181   0.0000       1.402008        38.1506 
 182   0.0000       1.450248        39.4633 
 183   0.0000       1.456690        39.6385 
 184   0.0000       1.467627        39.9362 
 185   0.0000       1.527875        41.5756 
 186   0.0000       1.541241        41.9393 
 187   0.0000       1.544583        42.0303 
 188   0.0000       1.570418        42.7332 
 189   0.0000       1.601532        43.5799 
 190   0.0000       1.607090        43.7311 
 191   0.0000       1.645366        44.7727 
 192   0.0000       1.657027        45.0900 
 193   0.0000       1.663954        45.2785 
 194   0.0000       1.668917        45.4135 
 195   0.0000       1.695799        46.1450 
 196   0.0000       1.726703        46.9860 
 197   0.0000       1.741590        47.3911 
 198   0.0000       1.757306        47.8187 
 199   0.0000       1.790223        48.7144 
 200   0.0000       1.816000        49.4159 
 201   0.0000       1.831417        49.8354 
 202   0.0000       1.844406        50.1888 
 203   0.0000       1.866234        50.7828 
 204   0.0000       1.893842        51.5341 
 205   0.0000       1.898618        51.6640 
 206   0.0000       1.920323        52.2546 
 207   0.0000       1.926267        52.4164 
 208   0.0000       1.931661        52.5632 
 209   0.0000       1.946882        52.9773 
 210   0.0000       1.977411        53.8081 
 211   0.0000       1.981443        53.9178 
 212   0.0000       1.991121        54.1812 
 213   0.0000       2.011602        54.7385 
 214   0.0000       2.029731        55.2318 
 215   0.0000       2.033966        55.3470 
 216   0.0000       2.040999        55.5384 
 217   0.0000       2.049388        55.7667 
 218   0.0000       2.059647        56.0458 
 219   0.0000       2.083683        56.6999 
 220   0.0000       2.094849        57.0037 
 221   0.0000       2.111398        57.4541 
 222   0.0000       2.125005        57.8243 
 223   0.0000       2.158863        58.7456 
 224   0.0000       2.177154        59.2434 
 225   0.0000       2.210152        60.1413 
 226   0.0000       2.223344        60.5003 
 227   0.0000       2.231164        60.7130 
 228   0.0000       2.238243        60.9057 
 229   0.0000       2.247599        61.1603 
 230   0.0000       2.273710        61.8708 
 231   0.0000       2.281674        62.0875 
 232   0.0000       2.326587        63.3096 
 233   0.0000       2.342734        63.7490 
 234   0.0000       2.355190        64.0880 
 235   0.0000       2.365613        64.3716 
 236   0.0000       2.381543        64.8051 
 237   0.0000       2.391929        65.0877 
 238   0.0000       2.414610        65.7049 
 239   0.0000       2.418978        65.8237 
 240   0.0000       2.435022        66.2603 
 241   0.0000       2.442522        66.4644 
 242   0.0000       2.450414        66.6792 
 243   0.0000       2.481935        67.5369 
 244   0.0000       2.493494        67.8514 
 245   0.0000       2.517527        68.5054 
 246   0.0000       2.542158        69.1756 
 247   0.0000       2.544444        69.2378 
 248   0.0000       2.549656        69.3797 
 249   0.0000       2.632728        71.6402 
 250   0.0000       2.648304        72.0640 
 251   0.0000       2.668532        72.6144 
 252   0.0000       2.693720        73.2998 
 253   0.0000       2.702514        73.5391 
 254   0.0000       2.705658        73.6247 
 255   0.0000       2.730166        74.2916 
 256   0.0000       2.742590        74.6297 
 257   0.0000       2.763243        75.1917 
 258   0.0000       2.775829        75.5342 
 259   0.0000       2.811074        76.4932 
 260   0.0000       2.825545        76.8870 
 261   0.0000       2.847228        77.4770 
 262   0.0000       2.849499        77.5388 
 263   0.0000       2.912101        79.2423 
 264   0.0000       3.009029        81.8799 
 265   0.0000       3.011898        81.9579 
 266   0.0000       3.197097        86.9974 
 267   0.0000       3.525835        95.9428 
 268   0.0000      13.348037       363.2185 
 269   0.0000      13.602178       370.1341 
 270   0.0000      13.625362       370.7650 
 271   0.0000      13.637131       371.0852 
 272   0.0000      13.844192       376.7196 
 273   0.0000      13.867024       377.3409 
 274   0.0000      13.900917       378.2632 
 275   0.0000      13.951632       379.6432 
 276   0.0000      13.994108       380.7990 
 277   0.0000      14.023636       381.6025 
 278   0.0000      14.051129       382.3507 
 279   0.0000      14.065927       382.7533 
 280   0.0000      14.075310       383.0086 
 281   0.0000      14.286231       388.7481 
 282   0.0000      14.322882       389.7454 
 283   0.0000      14.540890       395.6777 

                    ********************************
                    * MULLIKEN POPULATION ANALYSIS *
                    ********************************

-----------------------
MULLIKEN ATOMIC CHARGES
-----------------------
   0 C :    0.141875
   1 C :   -0.296690
   2 C :   -0.285748
   3 C :    0.143716
   4 C :   -0.308912
   5 C :    0.146665
   6 C :   -0.505614
   7 C :   -0.501138
   8 C :   -0.502822
   9 C :   -0.414949
  10 C :   -0.426614
  11 C :   -0.420351
  12 C :   -0.412141
  13 C :   -0.413232
  14 C :   -0.416423
  15 H :    0.201447
  16 H :    0.206295
  17 H :    0.197519
  18 H :    0.225140
  19 H :    0.212587
  20 H :    0.212385
  21 H :    0.225965
  22 H :    0.224835
  23 H :    0.207204
  24 H :    0.209559
  25 H :    0.208062
  26 H :    0.211878
  27 H :    0.210314
  28 H :    0.206593
  29 H :    0.210762
  30 H :    0.205936
  31 H :    0.209711
  32 H :    0.211430
  33 H :    0.209247
  34 H :    0.215254
  35 C :   -0.190648
  36 H :    0.212904
  37 H :    0.227998
Sum of atomic charges:   -0.0000000

--------------------------------
MULLIKEN REDUCED ORBITAL CHARGES
--------------------------------
  0 C s       :     3.151132  s :     3.151132
      pz      :     0.882725  p :     2.658148
      px      :     0.919072
      py      :     0.856351
      dz2     :     0.011669  d :     0.048845
      dxz     :     0.007639
      dyz     :     0.015003
      dx2y2   :     0.006541
      dxy     :     0.007994
  1 C s       :     3.263565  s :     3.263565
      pz      :     1.009124  p :     2.993615
      px      :     1.022580
      py      :     0.961911
      dz2     :     0.010794  d :     0.039510
      dxz     :     0.004785
      dyz     :     0.011615
      dx2y2   :     0.006443
      dxy     :     0.005873
  2 C s       :     3.270051  s :     3.270051
      pz      :     0.990728  p :     2.976267
      px      :     1.040007
      py      :     0.945533
      dz2     :     0.008727  d :     0.039430
      dxz     :     0.007312
      dyz     :     0.011530
      dx2y2   :     0.005797
      dxy     :     0.006064
  3 C s       :     3.147132  s :     3.147132
      pz      :     0.891562  p :     2.660126
      px      :     0.911367
      py      :     0.857197
      dz2     :     0.010064  d :     0.049026
      dxz     :     0.006894
      dyz     :     0.013419
      dx2y2   :     0.008954
      dxy     :     0.009693
  4 C s       :     3.258946  s :     3.258946
      pz      :     0.944785  p :     3.010509
      px      :     1.043622
      py      :     1.022102
      dz2     :     0.011354  d :     0.039458
      dxz     :     0.006784
      dyz     :     0.010113
      dx2y2   :     0.007610
      dxy     :     0.003597
  5 C s       :     3.143732  s :     3.143732
      pz      :     0.859116  p :     2.659907
      px      :     0.906288
      py      :     0.894504
      dz2     :     0.012192  d :     0.049696
      dxz     :     0.010188
      dyz     :     0.012796
      dx2y2   :     0.006956
      dxy     :     0.007565
  6 C s       :     3.369298  s :     3.369298
      pz      :     1.147261  p :     3.092807
      px      :     0.930369
      py      :     1.015177
      dz2     :     0.009201  d :     0.043509
      dxz     :     0.003798
      dyz     :     0.011426
      dx2y2   :     0.008804
      dxy     :     0.010280
  7 C s       :     3.368318  s :     3.368318
      pz      :     1.054639  p :     3.089361
      px      :     0.947128
      py      :     1.087593
      dz2     :     0.011436  d :     0.043459
      dxz     :     0.007172
      dyz     :     0.007028
      dx2y2   :     0.010599
      dxy     :     0.007226
  8 C s       :     3.365403  s :     3.365403
      pz      :     1.007932  p :     3.093517
      px      :     0.991859
      py      :     1.093726
      dz2     :     0.007535  d :     0.043902
      dxz     :     0.011066
      dyz     :     0.008872
      dx2y2   :     0.009717
      dxy     :     0.006713
  9 C s       :     3.338540  s :     3.338540
      pz      :     1.030257  p :     3.033708
      px      :     0.903477
      py      :     1.099974
      dz2     :     0.005628  d :     0.042701
      dxz     :     0.008391
      dyz     :     0.011704
      dx2y2   :     0.011475
      dxy     :     0.005503
 10 C s       :     3.353147  s :     3.353147
      pz      :     0.978413  p :     3.031189
      px      :     1.005540
      py      :     1.047235
      dz2     :     0.005190  d :     0.042279
      dxz     :     0.015495
      dyz     :     0.007795
      dx2y2   :     0.009189
      dxy     :     0.004611
 11 C s       :     3.343666  s :     3.343666
      pz      :     0.985090  p :     3.034193
      px      :     0.947718
      py      :     1.101385
      dz2     :     0.008088  d :     0.042491
      dxz     :     0.009097
      dyz     :     0.008245
      dx2y2   :     0.009353
      dxy     :     0.007708
 12 C s       :     3.350261  s :     3.350261
      pz      :     0.891538  p :     3.019389
      px      :     1.072308
      py      :     1.055543
      dz2     :     0.014090  d :     0.042491
      dxz     :     0.007381
      dyz     :     0.006600
      dx2y2   :     0.012585
      dxy     :     0.001835
 13 C s       :     3.345217  s :     3.345217
      pz      :     1.064229  p :     3.026041
      px      :     0.983622
      py      :     0.978191
      dz2     :     0.011695  d :     0.041974
      dxz     :     0.004623
      dyz     :     0.006633
      dx2y2   :     0.005866
      dxy     :     0.013157
 14 C s       :     3.356722  s :     3.356722
      pz      :     1.061434  p :     3.018335
      px      :     1.071580
      py      :     0.885321
      dz2     :     0.012649  d :     0.041366
      dxz     :     0.001242
      dyz     :     0.007053
      dx2y2   :     0.014787
      dxy     :     0.005635
 15 H s       :     0.798553  s :     0.798553
 16 H s       :     0.793705  s :     0.793705
 17 H s       :     0.802481  s :     0.802481
 18 H s       :     0.774860  s :     0.774860
 19 H s       :     0.787413  s :     0.787413
 20 H s       :     0.787615  s :     0.787615
 21 H s       :     0.774035  s :     0.774035
 22 H s       :     0.775165  s :     0.775165
 23 H s       :     0.792796  s :     0.792796
 24 H s       :     0.790441  s :     0.790441
 25 H s       :     0.791938  s :     0.791938
 26 H s       :     0.788122  s :     0.788122
 27 H s       :     0.789686  s :     0.789686
 28 H s       :     0.793407  s :     0.793407
 29 H s       :     0.789238  s :     0.789238
 30 H s       :     0.794064  s :     0.794064
 31 H s       :     0.790289  s :     0.790289
 32 H s       :     0.788570  s :     0.788570
 33 H s       :     0.790753  s :     0.790753
 34 H s       :     0.784746  s :     0.784746
 35 C s       :     3.349659  s :     3.349659
      pz      :     0.877407  p :     2.796487
      px      :     1.037820
      py      :     0.881260
      dz2     :     0.009286  d :     0.044502
      dxz     :     0.007438
      dyz     :     0.010475
      dx2y2   :     0.006812
      dxy     :     0.010491
 36 H s       :     0.787096  s :     0.787096
 37 H s       :     0.772002  s :     0.772002


                     *******************************
                     * LOEWDIN POPULATION ANALYSIS *
                     *******************************

----------------------
LOEWDIN ATOMIC CHARGES
----------------------
   0 C :   -0.028187
   1 C :   -0.153729
   2 C :   -0.146277
   3 C :   -0.029396
   4 C :   -0.159560
   5 C :   -0.032655
   6 C :   -0.223509
   7 C :   -0.223852
   8 C :   -0.225148
   9 C :   -0.235611
  10 C :   -0.232406
  11 C :   -0.237006
  12 C :   -0.229451
  13 C :   -0.232047
  14 C :   -0.228694
  15 H :    0.130350
  16 H :    0.131097
  17 H :    0.129719
  18 H :    0.131594
  19 H :    0.124675
  20 H :    0.124698
  21 H :    0.132405
  22 H :    0.131098
  23 H :    0.118906
  24 H :    0.121006
  25 H :    0.121569
  26 H :    0.124630
  27 H :    0.121177
[...]
      dz2     :     0.006115  d :     0.042760
      dxz     :     0.007727
      dyz     :     0.012692
      dx2y2   :     0.008950
      dxy     :     0.007276
 10 C s       :     3.331383  s :     3.331383
      pz      :     1.012464  p :     3.071565
      px      :     1.009176
      py      :     1.049925
      dz2     :     0.005039  d :     0.041917
      dxz     :     0.011992
      dyz     :     0.009299
      dx2y2   :     0.004461
      dxy     :     0.011127
 11 C s       :     3.329662  s :     3.329662
      pz      :     1.007715  p :     3.050952
      px      :     0.940333
      py      :     1.102904
      dz2     :     0.007276  d :     0.044280
      dxz     :     0.010608
      dyz     :     0.008838
      dx2y2   :     0.011100
      dxy     :     0.006457
 12 C s       :     3.326843  s :     3.326843
      pz      :     0.897385  p :     3.042023
      px      :     1.068737
      py      :     1.075902
      dz2     :     0.014402  d :     0.043785
      dxz     :     0.008583
      dyz     :     0.005711
      dx2y2   :     0.013417
      dxy     :     0.001672
 13 C s       :     3.330546  s :     3.330546
      pz      :     1.053502  p :     3.046115
      px      :     0.995468
      py      :     0.997145
      dz2     :     0.011243  d :     0.043139
      dxz     :     0.004291
      dyz     :     0.008820
      dx2y2   :     0.005349
      dxy     :     0.013437
 14 C s       :     3.336304  s :     3.336304
      pz      :     1.041214  p :     3.064799
      px      :     1.119451
      py      :     0.904134
      dz2     :     0.004955  d :     0.041767
      dxz     :     0.011565
      dyz     :     0.008191
      dx2y2   :     0.012283
      dxy     :     0.004774
 15 H s       :     0.796798  s :     0.796798
 16 H s       :     0.791052  s :     0.791052
 17 H s       :     0.793610  s :     0.793610
 18 H s       :     0.771433  s :     0.771433
 19 H s       :     0.778460  s :     0.778460
 20 H s       :     0.782342  s :     0.782342
 21 H s       :     0.769273  s :     0.769273
 22 H s       :     0.770923  s :     0.770923
 23 H s       :     0.782271  s :     0.782271
 24 H s       :     0.776291  s :     0.776291
 25 H s       :     0.778534  s :     0.778534
 26 H s       :     0.771298  s :     0.771298
 27 H s       :     0.780794  s :     0.780794
 28 H s       :     0.792146  s :     0.792146
 29 H s       :     0.789213  s :     0.789213
 30 H s       :     0.788237  s :     0.788237
 31 H s       :     0.778054  s :     0.778054
 32 H s       :     0.779767  s :     0.779767
 33 H s       :     0.779503  s :     0.779503
 34 H s       :     0.775379  s :     0.775379
 35 C s       :     3.300460  s :     3.300460
      pz      :     0.909697  p :     2.847125
      px      :     1.009445
      py      :     0.927983
      dz2     :     0.008753  d :     0.047236
      dxz     :     0.009389
      dyz     :     0.009285
      dx2y2   :     0.010460
      dxy     :     0.009349
 36 H s       :     0.777023  s :     0.777023
 37 H s       :     0.783420  s :     0.783420


                     *******************************
                     * LOEWDIN POPULATION ANALYSIS *
                     *******************************

----------------------
LOEWDIN ATOMIC CHARGES
----------------------
   0 C :   -0.040340
   1 C :   -0.148191
   2 C :   -0.133192
   3 C :   -0.038985
   4 C :   -0.148845
   5 C :   -0.038969
   6 C :   -0.224272
   7 C :   -0.224930
   8 C :   -0.223563
   9 C :   -0.233848
  10 C :   -0.242472
  11 C :   -0.235652
  12 C :   -0.235086
  13 C :   -0.230885
  14 C :   -0.241042
  15 H :    0.128225
  16 H :    0.128366
  17 H :    0.127905
  18 H :    0.131095
  19 H :    0.125968
  20 H :    0.126132
  21 H :    0.134087
  22 H :    0.130949
  23 H :    0.121566
  24 H :    0.125101
  25 H :    0.123946
  26 H :    0.129082
  27 H :    0.126196
  28 H :    0.117107
  29 H :    0.125410
  30 H :    0.126488
  31 H :    0.122809
  32 H :    0.122452
  33 H :    0.126148
  34 H :    0.127954
  35 C :   -0.144081
  36 H :    0.127158
  37 H :    0.130207

-------------------------------
LOEWDIN REDUCED ORBITAL CHARGES
-------------------------------
  0 C s       :     2.847244  s :     2.847244
      pz      :     1.059571  p :     3.078152
      px      :     0.944019
      py      :     1.074561
      dz2     :     0.028980  d :     0.114944
      dxz     :     0.013926
      dyz     :     0.039660
      dx2y2   :     0.014249
      dxy     :     0.018129
  1 C s       :     2.882795  s :     2.882795
      pz      :     1.065408  p :     3.173769
      px      :     1.039343
      py      :     1.069018
      dz2     :     0.023401  d :     0.091627
      dxz     :     0.011442
      dyz     :     0.029234
      dx2y2   :     0.014667
      dxy     :     0.012883
  2 C s       :     2.879829  s :     2.879829
      pz      :     1.068941  p :     3.161137
      px      :     1.022837
      py      :     1.069359
      dz2     :     0.020892  d :     0.092226
      dxz     :     0.013508
      dyz     :     0.029568
      dx2y2   :     0.015464
      dxy     :     0.012793
  3 C s       :     2.845768  s :     2.845768
      pz      :     1.028133  p :     3.077183
      px      :     0.971483
      py      :     1.077567
      dz2     :     0.023430  d :     0.116034
      dxz     :     0.014520
      dyz     :     0.031662
      dx2y2   :     0.021300
      dxy     :     0.025121
  4 C s       :     2.884698  s :     2.884698
      pz      :     1.070496  p :     3.171938
      px      :     1.039759
      py      :     1.061683
      dz2     :     0.029521  d :     0.092209
      dxz     :     0.016683
      dyz     :     0.024681
      dx2y2   :     0.013603
      dxy     :     0.007721
  5 C s       :     2.846731  s :     2.846731
      pz      :     1.085836  p :     3.075951
      px      :     0.978529
      py      :     1.011587
      dz2     :     0.031209  d :     0.116287
      dxz     :     0.023055
      dyz     :     0.031810
      dx2y2   :     0.013521
      dxy     :     0.016693
  6 C s       :     2.907364  s :     2.907364
      pz      :     1.111759  p :     3.227614
      px      :     1.045674
      py      :     1.070181
      dz2     :     0.014773  d :     0.089294
      dxz     :     0.007076
      dyz     :     0.025192
      dx2y2   :     0.017470
      dxy     :     0.024784
  7 C s       :     2.905024  s :     2.905024
      pz      :     1.089399  p :     3.230795
      px      :     1.054693
      py      :     1.086703
      dz2     :     0.024862  d :     0.089111
      dxz     :     0.013961
      dyz     :     0.010310
      dx2y2   :     0.024061
      dxy     :     0.015917
  8 C s       :     2.905800  s :     2.905800
      pz      :     1.069434  p :     3.228534
      px      :     1.065623
      py      :     1.093478
      dz2     :     0.019041  d :     0.089230
      dxz     :     0.017329
      dyz     :     0.019202
      dx2y2   :     0.014738
      dxy     :     0.018919
  9 C s       :     2.917003  s :     2.917003
      pz      :     1.079696  p :     3.230566
      px      :     1.041555
      py      :     1.109315
      dz2     :     0.013036  d :     0.086278
      dxz     :     0.017662
      dyz     :     0.022858
      dx2y2   :     0.018349
      dxy     :     0.014373
 10 C s       :     2.920789  s :     2.920789
      pz      :     1.078361  p :     3.238218
      px      :     1.073146
      py      :     1.086711
      dz2     :     0.010186  d :     0.083464
      dxz     :     0.025062
      dyz     :     0.017869
      dx2y2   :     0.008934
      dxy     :     0.021414
 11 C s       :     2.918511  s :     2.918511
      pz      :     1.074286  p :     3.228040
      px      :     1.046337
      py      :     1.107417
      dz2     :     0.015556  d :     0.089100
      dxz     :     0.022817
      dyz     :     0.015719
      dx2y2   :     0.022794
      dxy     :     0.012214
 12 C s       :     2.917405  s :     2.917405
      pz      :     1.045678  p :     3.229761
      px      :     1.086853
      py      :     1.097230
      dz2     :     0.031611  d :     0.087920
      dxz     :     0.018366
      dyz     :     0.012431
      dx2y2   :     0.022397
      dxy     :     0.003114
 13 C s       :     2.919321  s :     2.919321
      pz      :     1.098534  p :     3.224754
      px      :     1.057904
      py      :     1.068316
      dz2     :     0.021335  d :     0.086810
      dxz     :     0.008366
      dyz     :     0.018596
      dx2y2   :     0.011828
      dxy     :     0.026685
 14 C s       :     2.916131  s :     2.916131
      pz      :     1.089824  p :     3.241870
      px      :     1.111388
      py      :     1.040657
      dz2     :     0.010319  d :     0.083041
      dxz     :     0.019847
      dyz     :     0.018736
      dx2y2   :     0.025113
      dxy     :     0.009027
 15 H s       :     0.871775  s :     0.871775
 16 H s       :     0.871634  s :     0.871634
 17 H s       :     0.872095  s :     0.872095
 18 H s       :     0.868905  s :     0.868905
 19 H s       :     0.874032  s :     0.874032
 20 H s       :     0.873868  s :     0.873868
 21 H s       :     0.865913  s :     0.865913
 22 H s       :     0.869051  s :     0.869051
 23 H s       :     0.878434  s :     0.878434
 24 H s       :     0.874899  s :     0.874899
 25 H s       :     0.876054  s :     0.876054
 26 H s       :     0.870918  s :     0.870918
 27 H s       :     0.873804  s :     0.873804
 28 H s       :     0.882893  s :     0.882893
 29 H s       :     0.874590  s :     0.874590
 30 H s       :     0.873512  s :     0.873512
 31 H s       :     0.877191  s :     0.877191
 32 H s       :     0.877548  s :     0.877548
 33 H s       :     0.873852  s :     0.873852
 34 H s       :     0.872046  s :     0.872046
 35 C s       :     2.892453  s :     2.892453
      pz      :     1.040851  p :     3.152909
      px      :     1.067421
      py      :     1.044636
      dz2     :     0.019744  d :     0.098719
      dxz     :     0.018032
      dyz     :     0.020274
      dx2y2   :     0.021834
      dxy     :     0.018835
 36 H s       :     0.872842  s :     0.872842
 37 H s       :     0.869793  s :     0.869793


                      *****************************
                      * MAYER POPULATION ANALYSIS *
                      *****************************

  NA   - Mulliken gross atomic population
  ZA   - Total nuclear charge
  QA   - Mulliken gross atomic charge
  VA   - Mayer's total valence
  BVA  - Mayer's bonded valence
  FA   - Mayer's free valence

  ATOM       NA         ZA         QA         VA         BVA        FA
  0 C      5.8494     6.0000     0.1506     3.7267     3.7267    -0.0000
  1 C      6.3228     6.0000    -0.3228     3.8144     3.8144    -0.0000
  2 C      6.3067     6.0000    -0.3067     3.7739     3.7739    -0.0000
  3 C      5.8374     6.0000     0.1626     3.7237     3.7237    -0.0000
  4 C      6.3383     6.0000    -0.3383     3.8463     3.8463    -0.0000
  5 C      5.8534     6.0000     0.1466     3.7329     3.7329     0.0000
  6 C      6.5182     6.0000    -0.5182     3.7569     3.7569    -0.0000
  7 C      6.5064     6.0000    -0.5064     3.7382     3.7382     0.0000
  8 C      6.5152     6.0000    -0.5152     3.7526     3.7526    -0.0000
  9 C      6.4265     6.0000    -0.4265     3.7064     3.7064     0.0000
 10 C      6.4449     6.0000    -0.4449     3.6835     3.6835    -0.0000
 11 C      6.4249     6.0000    -0.4249     3.7426     3.7426     0.0000
 12 C      6.4127     6.0000    -0.4127     3.7459     3.7459    -0.0000
 13 C      6.4198     6.0000    -0.4198     3.7000     3.7000     0.0000
 14 C      6.4429     6.0000    -0.4429     3.6886     3.6886    -0.0000
 15 H      0.7968     1.0000     0.2032     0.9225     0.9225    -0.0000
 16 H      0.7911     1.0000     0.2089     0.9176     0.9176    -0.0000
 17 H      0.7936     1.0000     0.2064     0.9221     0.9221    -0.0000
 18 H      0.7714     1.0000     0.2286     0.9054     0.9054     0.0000
 19 H      0.7785     1.0000     0.2215     0.9092     0.9092    -0.0000
 20 H      0.7823     1.0000     0.2177     0.9118     0.9118     0.0000
 21 H      0.7693     1.0000     0.2307     0.9005     0.9005    -0.0000
 22 H      0.7709     1.0000     0.2291     0.9060     0.9060    -0.0000
 23 H      0.7823     1.0000     0.2177     0.9103     0.9103    -0.0000
 24 H      0.7763     1.0000     0.2237     0.9066     0.9066    -0.0000
 25 H      0.7785     1.0000     0.2215     0.9033     0.9033    -0.0000
 26 H      0.7713     1.0000     0.2287     0.9008     0.9008    -0.0000
 27 H      0.7808     1.0000     0.2192     0.9011     0.9011    -0.0000
 28 H      0.7921     1.0000     0.2079     0.9095     0.9095    -0.0000
 29 H      0.7892     1.0000     0.2108     0.9019     0.9019     0.0000
 30 H      0.7882     1.0000     0.2118     0.9017     0.9017     0.0000
 31 H      0.7781     1.0000     0.2219     0.9064     0.9064    -0.0000
 32 H      0.7798     1.0000     0.2202     0.9067     0.9067    -0.0000
 33 H      0.7795     1.0000     0.2205     0.9036     0.9036     0.0000
 34 H      0.7754     1.0000     0.2246     0.9079     0.9079    -0.0000
 35 C      6.1948     6.0000    -0.1948     3.7090     3.7090     0.0000
 36 H      0.7770     1.0000     0.2230     0.9078     0.9078    -0.0000
 37 H      0.7834     1.0000     0.2166     0.8879     0.8879     0.0000

  Mayer bond orders larger than 0.100000
B(  0-C ,  1-C ) :   1.3786 B(  0-C ,  4-C ) :   1.4030 B(  0-C ,  8-C ) :   0.9746 
B(  1-C ,  5-C ) :   1.4074 B(  1-C , 15-H ) :   0.9193 B(  2-C ,  3-C ) :   1.3910 
B(  2-C ,  5-C ) :   1.3790 B(  2-C , 16-H ) :   0.9180 B(  3-C ,  4-C ) :   1.3975 
B(  3-C ,  7-C ) :   0.9596 B(  4-C , 17-H ) :   0.9136 B(  5-C ,  6-C ) :   0.9712 
B(  6-C , 13-C ) :   0.9740 B(  6-C , 18-H ) :   0.9155 B(  6-C , 19-H ) :   0.9208 
B(  7-C , 11-C ) :   0.9795 B(  7-C , 20-H ) :   0.9232 B(  7-C , 21-H ) :   0.9120 
B(  8-C ,  9-C ) :   0.9669 B(  8-C , 22-H ) :   0.9186 B(  8-C , 36-H ) :   0.9206 
B(  9-C , 10-C ) :   0.9618 B(  9-C , 23-H ) :   0.9095 B(  9-C , 24-H ) :   0.9240 
B( 10-C , 25-H ) :   0.9291 B( 10-C , 26-H ) :   0.9067 B( 10-C , 35-C ) :   0.9443 
B( 11-C , 12-C ) :   0.9964 B( 11-C , 27-H ) :   0.9125 B( 11-C , 28-H ) :   0.9068 
B( 12-C , 29-H ) :   0.9146 B( 12-C , 30-H ) :   0.9175 B( 12-C , 35-C ) :   0.9693 
B( 13-C , 14-C ) :   0.9563 B( 13-C , 31-H ) :   0.9094 B( 13-C , 32-H ) :   0.9247 
B( 14-C , 33-H ) :   0.9335 B( 14-C , 34-H ) :   0.9012 B( 14-C , 35-C ) :   0.9584 
B( 35-C , 37-H ) :   0.9261 

-------
TIMINGS
-------

Total SCF time: 0 days 0 hours 2 min 1 sec 

Total time                  ....     121.111 sec
Sum of individual times     ....     120.845 sec  ( 99.8%)

Fock matrix formation       ....     116.256 sec  ( 96.0%)
  Split-RI-J                ....       7.946 sec  (  6.8% of F)
  Chain of spheres X        ....     102.979 sec  ( 88.6% of F)
  XC integration            ....       5.366 sec  (  4.6% of F)
    Basis function eval.    ....       2.386 sec  ( 44.5% of XC)
    Density eval.           ....       1.382 sec  ( 25.8% of XC)
    XC-Functional eval.     ....       0.432 sec  (  8.1% of XC)
    XC-Potential eval.      ....       0.948 sec  ( 17.7% of XC)
Diagonalization             ....       0.010 sec  (  0.0%)
Density matrix formation    ....       0.008 sec  (  0.0%)
Population analysis         ....       0.009 sec  (  0.0%)
Initial guess               ....       0.014 sec  (  0.0%)
Orbital Transformation      ....       0.000 sec  (  0.0%)
Orbital Orthonormalization  ....       0.011 sec  (  0.0%)
DIIS solution               ....       0.003 sec  (  0.0%)
SOSCF solution              ....       0.032 sec  (  0.0%)
Grid generation             ....       4.513 sec  (  3.7%)

Maximum memory used throughout the entire SCF-calculation: 124.2 MB


-------------------------------------------------------------------------------
                          DFT DISPERSION CORRECTION                            
                                                                               
                              DFTD3 V3.1  Rev 1                                
                          USING Becke-Johnson damping                          
-------------------------------------------------------------------------------
The PBEh-3c composite method is recognized
Using three-body term ABC
Active option DFTDOPT                   ...         4   

molecular C6(AA) [au] = 12351.454742 


            DFT-D V3
 parameters
 s6 scaling factor         :     1.0000 
 a1 scaling factor         :     0.4860 
 s8 scaling factor         :     0.0000 
 a2 scaling factor         :     4.5000 
 Damping factor alpha9(ATM):    16.0000 
 ad hoc parameters k1-k3   :    16.0000     1.3333    -4.0000 

 Edisp/kcal,au: -19.387688086495  -0.030896244311 
 E6   /kcal   : -19.857574891 
 E8   /kcal   :  -0.000000000 
 E6(ABC)      :   0.469886805 
 % E8         :   0.000000000 
 % E6(ABC)    :  -2.423635054 

-------------------------   ----------------
Dispersion correction           -0.030896244
-------------------------   ----------------

------------------   -----------------
gCP correction             0.064621055
------------------   -----------------

-------------------------   --------------------
FINAL SINGLE POINT ENERGY      -621.528579856873
-------------------------   --------------------

                                *** OPTIMIZATION RUN DONE ***

                            ***************************************
                            *     ORCA property calculations      *
                            ***************************************

                                    ---------------------
                                    Active property flags
                                    ---------------------
   (+) Dipole Moment


------------------------------------------------------------------------------
                       ORCA ELECTRIC PROPERTIES CALCULATION
------------------------------------------------------------------------------

Dipole Moment Calculation                       ... on
Quadrupole Moment Calculation                   ... off
Polarizability Calculation                      ... off
GBWName                                         ... I.gbw
Electron density                                ... I.scfp
The origin for moment calculation is the CENTER OF MASS  = (-2.311408, -4.883563 -5.092078)

-------------
DIPOLE MOMENT
-------------
                                X             Y             Z
Electronic contribution:     -9.38756       3.57986       2.20656
Nuclear contribution   :     10.14954      -3.86624      -2.38799
                        -----------------------------------------
Total Dipole Moment    :      0.76198      -0.28638      -0.18142
                        -----------------------------------------
Magnitude (a.u.)       :      0.83399
Magnitude (Debye)      :      2.11983



--------------------
Rotational spectrum 
--------------------
 
Rotational constants in cm-1:     0.022101     0.019722     0.018587 
Rotational constants in MHz :   662.580615   591.252295   557.225578 

 Dipole components along the rotational axes: 
x,y,z [a.u.] :     0.173625    -0.268923    -0.770112 
x,y,z [Debye]:     0.441320    -0.683547    -1.957469 

 

Timings for individual modules:

Sum of individual times         ...     4904.634 sec (=  81.744 min)
GTO integral calculation        ...        7.789 sec (=   0.130 min)   0.2 %
SCF iterations                  ...     3672.540 sec (=  61.209 min)  74.9 %
SCF Gradient evaluation         ...     1222.404 sec (=  20.373 min)  24.9 %
Geometry relaxation             ...        1.901 sec (=   0.032 min)   0.0 %
                             ****ORCA TERMINATED NORMALLY****
TOTAL RUN TIME: 0 days 1 hours 21 minutes 47 seconds 795 msec
