[Molden Format]
[Title]
                                                                                
[Atoms] AU
 c     1    6 -.92506714900024E+01 0.13156853438382E+01 -.20380257061540E+01
 h     2    1 -.76429536206561E+01 0.29429666850493E+01 -.23822063760371E+01
 h     3    1 -.10638270564543E+02 0.16422245260826E+01 -.35161998991475E+01
 h     4    1 -.99704946614881E+01 0.16831822534062E+01 -.15029829339834E+00
 h     5    1 -.83290323953509E+01 -.51194005416725E+00 -.21990746951780E+01
 o     6    8 -.57018300207371E+01 0.44170226516376E+01 -.27802825861328E+01
 h     7    1 -.43842912954750E+01 0.31469386074699E+01 -.29328818356101E+01
[GTO]
    1 0
 s    6 1.00
 0.13575349682000E+05 0.60645503603591E-03
 0.20352333680000E+04 0.46979088884982E-02
 0.46322562359000E+03 0.24332477647552E-01
 0.13120019598000E+03 0.97399968307759E-01
 0.42853015891000E+02 0.30195584253780E+00
 0.15584185766000E+02 0.66233609137875E+00
 s    2 1.00
 0.62067138508000E+01 0.65595308539952E+00
 0.25764896527000E+01 0.37585633285142E+00
 s    1 1.00
 0.57696339419000E+00 0.10000000000000E+01
 s    1 1.00
 0.22972831358000E+00 0.10000000000000E+01
 s    1 1.00
 0.95164440028000E-01 0.10000000000000E+01
 p    4 1.00
 0.34697232244000E+02 0.11327220003114E-01
 0.79582622826000E+01 0.76169659202087E-01
 0.23780826883000E+01 0.30192252202676E+00
 0.81433208183000E+00 0.72785027349547E+00
 p    1 1.00
 0.28887547253000E+00 0.10000000000000E+01
 p    1 1.00
 0.10056823671000E+00 0.10000000000000E+01
 d    1 1.00
 0.10970000000000E+01 0.10000000000000E+01
 d    1 1.00
 0.31800000000000E+00 0.10000000000000E+01
 f    1 1.00
 0.76100000000000E+00 0.10000000000000E+01
 
    2 0
 s    3 1.00
 0.34061341000000E+02 0.25439307208879E-01
 0.51235746000000E+01 0.19008594890375E+00
 0.11646626000000E+01 0.85244113011042E+00
 s    1 1.00
 0.32723041000000E+00 0.10000000000000E+01
 s    1 1.00
 0.10307241000000E+00 0.10000000000000E+01
 p    1 1.00
 0.80000000000000E+00 0.10000000000000E+01
 
    3 0
 s    3 1.00
 0.34061341000000E+02 0.25439307208879E-01
 0.51235746000000E+01 0.19008594890375E+00
 0.11646626000000E+01 0.85244113011042E+00
 s    1 1.00
 0.32723041000000E+00 0.10000000000000E+01
 s    1 1.00
 0.10307241000000E+00 0.10000000000000E+01
 p    1 1.00
 0.80000000000000E+00 0.10000000000000E+01
 
    4 0
 s    3 1.00
 0.34061341000000E+02 0.25439307208879E-01
 0.51235746000000E+01 0.19008594890375E+00
 0.11646626000000E+01 0.85244113011042E+00
 s    1 1.00
 0.32723041000000E+00 0.10000000000000E+01
 s    1 1.00
 0.10307241000000E+00 0.10000000000000E+01
 p    1 1.00
 0.80000000000000E+00 0.10000000000000E+01
 
    5 0
 s    3 1.00
 0.34061341000000E+02 0.25439307208879E-01
 0.51235746000000E+01 0.19008594890375E+00
 0.11646626000000E+01 0.85244113011042E+00
 s    1 1.00
 0.32723041000000E+00 0.10000000000000E+01
 s    1 1.00
 0.10307241000000E+00 0.10000000000000E+01
 p    1 1.00
 0.80000000000000E+00 0.10000000000000E+01
 
    6 0
 s    6 1.00
 0.27032382631000E+05 0.57227335211155E-03
 0.40523871392000E+04 0.44353233492995E-02
 0.92232722710000E+03 0.23020107706038E-01
 0.26124070989000E+03 0.92822490667928E-01
 0.85354641351000E+02 0.29378500009671E+00
 0.31035035245000E+02 0.67401604501641E+00
 s    2 1.00
 0.12260860728000E+02 0.63839937025506E+00
 0.49987076005000E+01 0.39534587125718E+00
 s    1 1.00
 0.11703108158000E+01 0.10000000000000E+01
 s    1 1.00
 0.46474740994000E+00 0.10000000000000E+01
 s    1 1.00
 0.18504536357000E+00 0.10000000000000E+01
 p    4 1.00
 0.63274954801000E+02 0.12018332222616E-01
 0.14627049379000E+02 0.83005421790056E-01
 0.44501223456000E+01 0.31991743925964E+00
 0.15275799647000E+01 0.70715542916104E+00
 p    1 1.00
 0.52935117943000E+00 0.10000000000000E+01
 p    1 1.00
 0.17478421270000E+00 0.10000000000000E+01
 d    1 1.00
 0.23140000000000E+01 0.10000000000000E+01
 d    1 1.00
 0.64500000000000E+00 0.10000000000000E+01
 f    1 1.00
 0.14280000000000E+01 0.10000000000000E+01
 
    7 0
 s    3 1.00
 0.34061341000000E+02 0.25439307208879E-01
 0.51235746000000E+01 0.19008594890375E+00
 0.11646626000000E+01 0.85244113011042E+00
 s    1 1.00
 0.32723041000000E+00 0.10000000000000E+01
 s    1 1.00
 0.10307241000000E+00 0.10000000000000E+01
 p    1 1.00
 0.80000000000000E+00 0.10000000000000E+01
 
[MO]
 Sym=     1a   
 Ene= -.19148341327747E+02
 Spin= Alpha
 Occup= 1.000000
     1 0.19843799130149E-04
     2 -.92426824782263E-04
     3 0.27886691199838E-03
     4 -.43289929941608E-03
     5 0.92276943709725E-02
     6 0.67669741759049E-04
     7 0.51426664724917E-04
     8 -.12661770166070E-04
     9 0.39846045911523E-03
    10 0.52333047114917E-03
    11 -.10219396359933E-03
    12 0.18598016257478E-02
    13 0.25766272063399E-02
    14 -.40943703728956E-03
    15 0.43790948015176E-04
    16 0.16418325129079E-05
    17 -.45432780528084E-04
    18 0.60866108649620E-04
    19 -.21546060230712E-04
    20 -.12014943349121E-04
    21 -.72843956527304E-04
    22 0.14132672321215E-03
    23 -.68482766684841E-04
    24 0.24684341224551E-03
    25 -.20463291872878E-05
    26 -.58950102267141E-04
    27 -.20295360418942E-04
    28 0.12120615067180E-05
    29 0.58102303691667E-05
    30 0.37722560603242E-04
    31 0.18125610022856E-04
    32 0.48960062896260E-06
    33 -.10493477288474E-04
    34 -.19751761176015E-04
    35 -.82848426711968E-05
    36 -.10318514475157E-04
    37 0.42585900350023E-04
    38 -.67130227990278E-03
    39 -.11890818632294E-01
    40 0.86423043259164E-03
    41 0.61055239241772E-03
    42 -.17438481375870E-03
    43 0.73822970607303E-04
    44 -.27909886968356E-03
    45 -.67991185580397E-03
    46 0.10351243070184E-04
    47 0.13636264820753E-04
    48 0.40324710878495E-05
    49 0.73027166970662E-04
    50 -.25341136983367E-03
    51 -.69074110183313E-03
    52 0.11310750375867E-04
    53 0.16118381665387E-04
    54 -.12885595032954E-04
    55 0.36219982307288E-04
    56 -.80847596366071E-04
    57 -.13803483180413E-03
    58 0.84645134368334E-04
    59 0.85379075367504E-04
    60 -.18821084567815E-04
    61 0.43489712853002E+00
    62 0.63971132977697E+00
    63 0.35018136492583E-01
    64 -.23525116846407E-01
    65 0.13858133220111E-01
    66 0.44059091946926E-03
    67 -.14167451835522E-02
    68 0.12707170977142E-05
    69 -.60631179241309E-03
    70 0.23082367732911E-02
    71 -.20161712574741E-04
    72 -.16679884383917E-02
    73 -.19297038352889E-02
    74 0.37898830900109E-03
    75 0.85977933417001E-04
    76 0.84506465298854E-04
    77 -.17048439871585E-03
    78 0.13478047362658E-03
    79 -.59436372882853E-04
    80 -.37532073364551E-04
    81 -.19263268824744E-03
    82 -.15158684097628E-03
    83 0.34421952922372E-03
    84 0.27834594138486E-03
    85 0.91377139923793E-04
    86 -.16433047547343E-04
    87 0.99961840435799E-05
    88 -.26214272096796E-04
    89 0.75600754480786E-07
    90 -.27096466399143E-04
    91 0.76241592141900E-04
    92 -.17675429499519E-05
    93 0.13685178176917E-04
    94 -.41071455508432E-04
    95 0.16661138942503E-05
    96 -.20452536267748E-04
    97 0.92481095164384E-03
    98 0.13088045663374E-02
    99 -.12257033800107E-02
   100 -.84059135346008E-03
   101 0.82218653941995E-03
   102 0.96312290569201E-04
 Sym=     1a   
 Ene= -.19130517191437E+02
 Spin= Beta
 Occup= 1.000000
     1 0.16640494018894E-04
     2 -.79043659461098E-04
     3 0.21079221596505E-03
     4 -.28779041448491E-03
     5 0.88680577351541E-02
     6 0.50771110188837E-04
     7 0.35453662266358E-04
     8 -.91909301505937E-05
     9 0.43799258444275E-03
    10 0.56763032124957E-03
    11 -.10966385602221E-03
    12 0.17843182854433E-02
    13 0.24982217062816E-02
    14 -.39437564521908E-03
    15 0.41272560958366E-04
    16 -.23084918723129E-05
    17 -.38964069086053E-04
    18 0.49280477936848E-04
    19 -.19218009072115E-04
    20 -.95232235070651E-05
    21 -.65126333592863E-04
    22 0.13420691784167E-03
    23 -.69080584248804E-04
    24 0.25703475013130E-03
    25 -.41258290857568E-05
    26 -.60643706737178E-04
    27 -.17435849056892E-04
    28 0.50648477422013E-06
    29 0.52637011520194E-05
    30 0.32929854205504E-04
    31 0.17032255709129E-04
    32 0.15408845195647E-06
    33 -.95372079635226E-05
    34 -.17711776339964E-04
    35 -.72160846054521E-05
    36 -.93965519956362E-05
    37 0.55221527793069E-04
    38 -.94335177821685E-03
    39 -.11493494803365E-01
    40 0.72401729062699E-03
    41 0.52006444927803E-03
    42 -.14632086984409E-03
    43 0.70586633629167E-04
    44 -.27629561154864E-03
    45 -.65289738071795E-03
    46 0.60016893821575E-05
    47 0.10073087916125E-04
    48 0.48711953751761E-05
    49 0.69928970083962E-04
    50 -.25165195155659E-03
    51 -.66161477400210E-03
    52 0.69023183361296E-05
    53 0.12464353134095E-04
    54 -.11715867418410E-04
    55 0.37507951507824E-04
    56 -.58372122131028E-04
    57 -.12373790944217E-03
    58 0.77112743968445E-04
    59 0.84924646365161E-04
    60 -.17259380596966E-04
    61 0.43527801701711E+00
    62 0.63981323385684E+00
    63 0.33618977379158E-01
    64 -.22482371668834E-01
    65 0.13373315279968E-01
    66 0.51865549135831E-03
    67 -.12917027362053E-02
    68 -.18126745781704E-04
    69 -.68454113473860E-03
    70 0.21738172260688E-02
    71 -.21678486516823E-06
    72 -.17290898891056E-02
    73 -.19119982829652E-02
    74 0.38810930156964E-03
    75 -.17525584599486E-04
    76 -.22950876194806E-04
    77 0.40476460794292E-04
    78 -.24475391960413E-03
    79 0.23069659352143E-04
    80 0.44937053181329E-04
    81 -.14668594401751E-03
    82 -.12003335500935E-03
    83 0.26671929902687E-03
    84 0.41155683303373E-03
    85 0.59775864183478E-04
    86 -.45276251735892E-04
    87 0.73152486809940E-05
    88 -.21634960119449E-04
    89 -.18711206387580E-05
    90 -.27471851018158E-04
    91 0.67410641508057E-04
    92 0.76234136043287E-06
    93 0.17657415024347E-04
    94 -.38384296597506E-04
    95 0.17480304049866E-05
    96 -.17887336549293E-04
    97 0.92727484287028E-03
    98 0.12824427754445E-02
    99 -.11408047549202E-02
   100 -.79824445534185E-03
   101 0.80436701911912E-03
   102 0.90254164213668E-04
 Sym=     2a   
 Ene= -.10186814079485E+02
 Spin= Alpha
 Occup= 1.000000
     1 0.46665917440402E+00
     2 0.60858526810577E+00
     3 0.36127350053306E-01
     4 -.18733410444177E-01
     5 0.27615186014836E-01
     6 0.18607384599152E-03
     7 0.14188742150237E-03
     8 -.40314028230671E-04
     9 -.13985794511262E-02
    10 -.13468901829878E-02
    11 0.29829291595610E-03
    12 0.11087100520834E-02
    13 0.11643794285312E-02
    14 -.24815617684237E-03
    15 -.24082030679369E-04
    16 0.18877422418421E-05
    17 0.22194288437527E-04
    18 -.42547639389958E-04
    19 0.10446421050567E-04
    20 0.92162183799687E-05
    21 -.22719463968055E-03
    22 -.94049220325023E-04
    23 0.32124386000558E-03
    24 -.59658659435012E-03
    25 0.13731097503227E-03
    26 0.12338904783007E-03
    27 0.11820179808360E-04
    28 -.17980862733179E-03
    29 0.17300881724440E-03
    30 0.35003912969851E-03
    31 0.73316090962285E-04
    32 -.16934317891038E-03
    33 -.36589756503317E-03
    34 0.16792249723060E-03
    35 -.62772506728815E-04
    36 0.10137672927436E-04
    37 -.27018878275659E-03
    38 0.21292893666106E-02
    39 -.79532893586436E-02
    40 0.14509266164760E-02
    41 0.12430522647363E-02
    42 -.30229608237658E-03
    43 -.60734519421929E-03
    44 -.21721885595782E-02
    45 -.50109660318406E-02
    46 -.14367086059294E-02
    47 0.36733672748828E-03
    48 -.15605870701666E-02
    49 -.60942550716927E-03
    50 -.21754145868308E-02
    51 -.50014567877058E-02
    52 -.73564026564691E-03
    53 0.41045856284149E-03
    54 0.19837840117510E-02
    55 -.63716367680147E-03
    56 -.22274637842622E-02
    57 -.50093656191620E-02
    58 0.10019666987309E-02
    59 -.19382422269170E-02
    60 -.17633660737233E-03
    61 0.63126661172482E-05
    62 -.82883763311341E-04
    63 0.78426200839647E-03
    64 -.14314698476480E-02
    65 0.10363661797653E-02
    66 -.24958935163670E-03
    67 -.12822954162372E-03
    68 0.48298692372944E-04
    69 0.10741881012517E-02
    70 0.48873364844785E-03
    71 -.20418903311230E-03
    72 -.20375392203385E-05
    73 0.29609285297305E-03
    74 -.11787320657056E-04
    75 0.45730233354282E-04
    76 -.29332793239572E-05
    77 -.42796954030325E-04
    78 0.80570220341484E-04
    79 -.22003500565200E-04
    80 -.16007905551988E-04
    81 -.21884473692232E-03
    82 0.88819862019743E-05
    83 0.20996275072034E-03
    84 -.46155508459092E-03
    85 0.11023662091018E-03
    86 0.89706445273033E-04
    87 0.41321979281581E-05
    88 -.21738551834796E-04
    89 0.14981440557939E-04
    90 0.26374957070679E-04
    91 0.44588747913331E-04
    92 -.15300941883113E-04
    93 -.31918882348987E-04
    94 -.15423420132328E-04
    95 -.47987698099425E-05
    96 -.15886168656075E-04
    97 -.13394041574195E-03
    98 -.53278765251467E-04
    99 0.82714132580314E-04
   100 0.10654054895022E-03
   101 -.10155507633830E-03
   102 -.13587339998714E-04
 Sym=     2a   
 Ene= -.10179401336656E+02
 Spin= Beta
 Occup= 1.000000
     1 0.46689216825175E+00
     2 0.60870224670251E+00
     3 0.35097343988421E-01
     4 -.17979638832832E-01
     5 0.26742531361952E-01
     6 0.72643213423197E-05
     7 -.21635892002712E-04
     8 -.27678634960999E-05
     9 -.15143023755374E-02
    10 -.14704839270955E-02
    11 0.32296197584718E-03
    12 0.12137708304361E-02
    13 0.12749180866575E-02
    14 -.27059221916669E-03
    15 -.13356673098205E-03
    16 -.60579587718653E-04
    17 0.19414631870070E-03
    18 -.35325323944999E-03
    19 0.81632624458782E-04
    20 0.74169563100135E-04
    21 -.20922817141384E-03
    22 -.93938809250275E-04
    23 0.30316698066411E-03
    24 -.56164227453566E-03
    25 0.12852016542275E-03
    26 0.11642178866272E-03
    27 0.16993835764304E-04
    28 -.17951533991854E-03
    29 0.17093819788148E-03
    30 0.33961912523169E-03
    31 0.61920045898002E-04
    32 -.16899521088613E-03
    33 -.36241874841216E-03
    34 0.17892505593911E-03
    35 -.60342447362451E-04
    36 0.15851994301976E-04
    37 -.25561545719455E-03
    38 0.21596124774800E-02
    39 -.79718613066385E-02
    40 0.12538774230259E-02
    41 0.10605787116320E-02
    42 -.26071167701640E-03
    43 -.61757676419095E-03
    44 -.22382100373557E-02
    45 -.47734826604536E-02
    46 -.14487960112308E-02
    47 0.36881968598509E-03
    48 -.15721931720723E-02
    49 -.61940855938222E-03
    50 -.22413163578400E-02
    51 -.47634541031334E-02
    52 -.74231086190447E-03
    53 0.41220290947671E-03
    54 0.19989686145594E-02
    55 -.64442658203577E-03
    56 -.22920776106086E-02
    57 -.47629461734161E-02
    58 0.10078857876354E-02
    59 -.19550175842409E-02
    60 -.17726433651625E-03
    61 0.47026673962939E-05
    62 -.77414398266010E-04
    63 0.71251310049345E-03
    64 -.13129568015971E-02
    65 0.10234517009014E-02
    66 -.23200742772108E-03
    67 -.12299257974951E-03
    68 0.45077727345826E-04
    69 0.94728415811710E-03
    70 0.42335473364633E-03
    71 -.17975512980510E-03
    72 -.17431828773453E-04
    73 0.31173773038461E-03
    74 -.10001422207777E-04
    75 0.41300695234346E-04
    76 -.15139514557640E-05
    77 -.39786743778582E-04
    78 0.72334293803450E-04
    79 -.20061686781296E-04
    80 -.14509751606799E-04
    81 -.19681683997249E-03
    82 0.52518687730044E-05
    83 0.19156497119948E-03
    84 -.40812144574679E-03
    85 0.99273415230576E-04
    86 0.79803919504049E-04
    87 0.36211993150607E-05
    88 -.18892422608895E-04
    89 0.12882637390337E-04
    90 0.22584985509370E-04
    91 0.38600110928065E-04
    92 -.13186244340381E-04
    93 -.27443334206501E-04
    94 -.13253266200179E-04
    95 -.40976274201837E-05
    96 -.13707631619963E-04
    97 -.11925821228801E-03
    98 -.76416044528042E-05
    99 0.85326605907488E-04
   100 0.92429091768625E-04
   101 -.87471640546609E-04
   102 -.11932959293276E-04
 Sym=     3a   
 Ene= -.99195172464791E+00
 Spin= Alpha
 Occup= 1.000000
     1 -.60699443903585E-02
     2 -.12921198270012E-01
     3 0.18273523171897E-01
     4 0.23511375627773E-01
     5 -.20591256143220E-02
     6 0.88508656368527E-02
     7 0.79585995579191E-02
     8 -.18471749382114E-02
     9 0.96579043258123E-02
    10 0.77272928024498E-02
    11 -.20909574403865E-02
    12 0.21402324017663E-02
    13 -.28422582922587E-03
    14 -.29202349259705E-03
    15 0.26675075290799E-03
    16 0.32257970692294E-03
    17 -.58933045983093E-03
    18 0.11100645298600E-02
    19 -.22277982213030E-03
    20 -.23718588724732E-03
    21 0.10657922137869E-02
    22 0.71580663708949E-03
    23 -.17815988508764E-02
    24 0.21900935381581E-02
    25 -.67712181068953E-03
    26 -.47952151615707E-03
    27 -.11408478340698E-03
    28 -.10301027558338E-03
    29 0.13548617129580E-03
    30 0.42073860347729E-03
    31 0.31228473193473E-03
    32 -.93801915643667E-04
    33 -.26767780493948E-03
    34 -.17408194478347E-03
    35 -.87971857773487E-04
    36 -.12987323023283E-03
    37 0.41373875235246E-01
    38 0.30666796800306E-01
    39 0.43157332941138E-02
    40 0.76770768626386E-02
    41 0.40244365158090E-02
    42 -.14865793240692E-02
    43 0.29979738495712E-02
    44 0.33342329768732E-02
    45 0.18803750048279E-02
    46 0.56010410182051E-03
    47 0.18040293010298E-03
    48 0.13352993277217E-03
    49 0.30041549785648E-02
    50 0.34595363719104E-02
    51 0.16773632301046E-02
    52 0.46695489665140E-03
    53 0.16832444500758E-03
    54 -.36874690251637E-03
    55 0.31294763876232E-02
    56 0.20317568536601E-02
    57 0.50278265398109E-03
    58 0.14622740096631E-03
    59 0.26033538418806E-03
    60 -.37637800416291E-04
    61 -.10048638322866E+00
    62 -.23680316417064E+00
    63 0.35036556734363E+00
    64 0.46232273363820E+00
    65 0.17406070415925E+00
    66 0.33810942194615E-01
    67 -.72398200301098E-01
    68 -.19632048662909E-02
    69 0.22952938132060E-01
    70 -.64380610937055E-01
    71 -.45847785998009E-03
    72 0.38704620656845E-02
    73 -.99431905250192E-02
    74 -.15123877493198E-03
    75 0.13864736342363E-02
    76 0.14349730530793E-02
    77 -.28214466873156E-02
    78 0.69266020435719E-04
    79 -.81906798277457E-03
    80 -.26562576602927E-03
    81 0.36492293674781E-02
    82 0.37694735069335E-02
    83 -.74187028744115E-02
    84 0.59641571416387E-03
    85 -.22190497841542E-02
    86 -.76911058861611E-03
    87 -.52215808073158E-05
    88 0.81568380345346E-04
    89 0.45759853112306E-04
    90 0.32427515668380E-03
    91 -.73787593473981E-03
    92 -.83980205378475E-04
    93 -.31726967090270E-03
    94 0.62844046877976E-03
    95 0.22586920058762E-04
    96 0.22612743590856E-03
    97 0.10076158720438E+00
    98 0.75918930767226E-01
    99 0.77154938039623E-02
   100 -.13839457729495E-01
   101 0.11955010621262E-01
   102 0.16746890750526E-02
 Sym=     3a   
 Ene= -.94685150216904E+00
 Spin= Beta
 Occup= 1.000000
     1 -.68596442362576E-02
     2 -.14543128380252E-01
     3 0.20218271145036E-01
     4 0.26547782747688E-01
     5 -.59456309588567E-02
     6 0.89269389779572E-02
     7 0.79225964216158E-02
     8 -.18619486808381E-02
     9 0.95653777295606E-02
    10 0.75531978701523E-02
    11 -.20554441221996E-02
    12 0.21298995104606E-02
    13 -.91444616933669E-03
    14 -.29472763977431E-03
    15 0.20931836832682E-03
    16 0.31118951800695E-03
    17 -.52050788633377E-03
    18 0.99467465507867E-03
    19 -.19248809243452E-03
    20 -.21378129788198E-03
    21 0.10046156412808E-02
    22 0.71818180078301E-03
    23 -.17227974420638E-02
    24 0.19711313744191E-02
    25 -.64415959776696E-03
    26 -.43402928396967E-03
    27 -.13743858194876E-03
    28 -.97278484407032E-04
    29 0.14591580826331E-03
    30 0.47179331706163E-03
    31 0.31563853402327E-03
    32 -.96354159749132E-04
    33 -.28740010988047E-03
    34 -.18512575169390E-03
    35 -.99412440012018E-04
    36 -.13563171044718E-03
    37 0.44821429365171E-01
    38 0.38075731445451E-01
    39 0.74537482650378E-02
    40 0.99281015701994E-02
    41 0.52753331793773E-02
    42 -.19230474798393E-02
    43 0.36749896999250E-02
    44 0.41571998634179E-02
    45 0.29466988567045E-02
    46 0.71537173026927E-03
    47 0.25902069220546E-03
    48 0.16934475587162E-03
    49 0.36805759261145E-02
    50 0.42749331850393E-02
    51 0.27723405534925E-02
    52 0.59405612697007E-03
    53 0.24492804629987E-03
    54 -.46032863870767E-03
    55 0.38322409872828E-02
    56 0.28683733415260E-02
    57 0.10185780914456E-02
    58 0.21585263431102E-03
    59 0.40778547544350E-03
    60 -.53249971545947E-04
    61 -.98066846250403E-01
    62 -.23039751618270E+00
    63 0.33668886511309E+00
    64 0.44671324345124E+00
    65 0.18195893003880E+00
    66 0.44234230847250E-01
    67 -.66095508195085E-01
    68 -.40032099264676E-02
    69 0.30673473412396E-01
    70 -.58980961041350E-01
    71 -.19888456113872E-02
    72 0.33533647946643E-02
    73 -.11317332034438E-01
    74 -.12939147549236E-04
    75 0.64958559487606E-03
    76 0.28010100768375E-03
    77 -.92968660255982E-03
    78 -.34549157875878E-02
    79 -.10977861687285E-03
    80 0.50193758392751E-03
    81 0.20834889250598E-02
    82 0.21449877554408E-02
    83 -.42284766805006E-02
    84 -.50829695489155E-02
    85 -.97974396440880E-03
    86 0.46834358771283E-03
    87 -.20909074845448E-03
    88 0.30142647652274E-03
    89 0.56745309394514E-04
    90 0.60078496514386E-03
    91 -.92528711606140E-03
    92 -.26438400385180E-04
    93 -.32026028893754E-03
    94 0.52088106102754E-03
    95 -.49693421141054E-04
    96 0.22495169994400E-03
    97 0.10826859005199E+00
    98 0.86329416863945E-01
    99 0.10768709320339E-01
   100 -.14246367730201E-01
   101 0.12305890671020E-01
   102 0.17252253680078E-02
 Sym=     4a   
 Ene= -.71896194566964E+00
 Spin= Alpha
 Occup= 1.000000
     1 -.95734935435014E-01
     2 -.20327340387685E+00
     3 0.32407231680821E+00
     4 0.35313627571557E+00
     5 0.92256770600085E-01
     6 0.27015359436301E-02
     7 0.30251555154062E-02
     8 -.61491831220277E-03
     9 0.12426925336624E-01
    10 0.99794770614579E-02
    11 -.29379955676659E-02
    12 0.27782580658364E-02
    13 0.19937205752667E-03
    14 0.55707716597518E-04
    15 -.55039580361908E-04
    16 0.22827822129239E-03
    17 -.17323864093048E-03
    18 0.42430963093448E-03
    19 -.18017508683674E-04
    20 -.97316122303812E-04
    21 0.14255190854746E-02
    22 0.13124262294763E-02
    23 -.27379453149509E-02
    24 0.31838727070112E-02
    25 -.10027714922129E-02
    26 -.67759835757008E-03
    27 -.38523497470120E-04
    28 -.69673845699348E-03
    29 0.67600223738819E-03
    30 0.14785520436413E-02
    31 0.53066475493993E-03
    32 -.63866551175406E-03
    33 -.14268673481968E-02
    34 0.40410797648551E-03
    35 -.26828666169110E-03
    36 -.73760277009066E-04
    37 0.72199473826247E-01
    38 0.66809852334979E-01
    39 -.15751658369396E-02
    40 -.90804469507933E-02
    41 -.90638373215700E-02
    42 0.18702014527950E-02
    43 0.84290630601691E-01
    44 0.90572305390608E-01
    45 0.11599476537589E-01
    46 0.87379184518790E-02
    47 -.21727146605542E-02
    48 0.92224638128456E-02
    49 0.84296746833868E-01
    50 0.90747386144732E-01
    51 0.10749141537674E-01
    52 0.45977017617360E-02
    53 -.25001028089868E-02
    54 -.11899655300404E-01
    55 0.84434810338547E-01
    56 0.88200320019043E-01
    57 0.11801960358946E-01
    58 -.55727227879761E-02
    59 0.10951949143908E-01
    60 0.10072370705998E-02
    61 0.11238913346972E-01
    62 0.26794769361392E-01
    63 -.43014988231748E-01
    64 -.53218462522390E-01
    65 -.23694911471208E-01
    66 -.47042787578714E-01
    67 -.98733830623623E-02
    68 0.82922063323924E-02
    69 -.41133115390015E-01
    70 -.98196475807903E-02
    71 0.73012715896729E-02
    72 -.14943819815948E-01
    73 -.64574047141497E-02
    74 0.27852989550900E-02
    75 -.17019114993514E-03
    76 -.60768691581844E-04
    77 0.23095984151699E-03
    78 0.63934041683004E-03
    79 0.46336456529742E-04
    80 -.86190502045491E-04
    81 0.90237901265178E-04
    82 0.55977575875532E-03
    83 -.65001366002050E-03
    84 0.40677983300407E-02
    85 -.37231280861480E-03
    86 -.75493427479563E-03
    87 -.53438923913853E-04
    88 0.78770210378220E-04
    89 -.15172123825487E-03
    90 -.27697324544400E-03
    91 -.20427358581400E-03
    92 0.15249809284690E-03
    93 0.34866908535348E-03
    94 0.98592258809409E-04
    95 0.51057308574100E-04
    96 0.10248547177908E-03
    97 -.20346583940901E-01
    98 -.18858634960558E-01
    99 -.34067038648704E-02
   100 0.61147513392561E-03
   101 -.30961950263647E-02
   102 0.59760517529329E-04
 Sym=     4a   
 Ene= -.69776488513791E+00
 Spin= Beta
 Occup= 1.000000
     1 -.94146226117219E-01
     2 -.19909638382094E+00
     3 0.31490718020708E+00
     4 0.33407272268016E+00
     5 0.98747477224582E-01
     6 -.11863025313173E-01
     7 -.10926974661499E-01
     8 0.24440155807391E-02
     9 -.24673183124791E-02
    10 -.48203839245871E-02
    11 0.31765960092858E-03
    12 0.29726570789547E-02
    13 -.26067602763411E-03
    14 -.25127115446349E-04
    15 -.12793160697543E-02
    16 -.44105726509782E-03
    17 0.17203733348521E-02
    18 -.29839484270138E-02
    19 0.76816049457082E-03
    20 0.61698984179066E-03
    21 -.23058442066434E-03
    22 0.63493624012132E-04
    23 0.16709079665221E-03
    24 -.21657539186344E-02
    25 0.13742702341207E-03
    26 0.45834968613101E-03
    27 0.37406713233083E-05
    28 -.70970571494140E-03
    29 0.65853797174998E-03
    30 0.13888396093764E-02
    31 0.46995435507860E-03
    32 -.63376602206269E-03
    33 -.13938582465926E-02
    34 0.48221577849884E-03
    35 -.24975538029599E-03
    36 -.38422987595085E-04
    37 0.67063520695703E-01
    38 0.75053794751073E-01
    39 -.17111511806678E-02
    40 -.69956345299435E-02
    41 -.77356109112747E-02
    42 0.14703515325606E-02
    43 0.88392504167536E-01
    44 0.96881150291118E-01
    45 0.13662106338817E-01
    46 0.91957458350262E-02
    47 -.21044590760032E-02
    48 0.95055979898305E-02
    49 0.88405424602959E-01
    50 0.96935527556590E-01
    51 0.12917782083836E-01
    52 0.48943012383315E-02
    53 -.24436398062519E-02
    54 -.12309919648545E-01
    55 0.88948363877630E-01
    56 0.94599513086265E-01
    57 0.13879370932569E-01
    58 -.58044820722141E-02
    59 0.11324313785203E-01
    60 0.10527558880215E-02
    61 0.11318113232571E-01
    62 0.26854773051312E-01
    63 -.41882472735503E-01
    64 -.54812907070251E-01
    65 -.25525675257149E-01
    66 -.40399756612920E-01
    67 -.24967338008553E-02
    68 0.68148227588802E-02
    69 -.34078371228418E-01
    70 -.29116024724316E-02
    71 0.57808728788324E-02
    72 -.12110856302665E-01
    73 -.44645993231019E-02
    74 0.22091384596606E-02
    75 -.39231708725999E-04
    76 -.22825212791234E-05
    77 0.41514230005123E-04
    78 0.10346539042801E-02
    79 -.38426432904749E-04
    80 -.16765905534259E-03
    81 0.16284167621083E-03
    82 0.50821277888111E-03
    83 -.67105445509195E-03
    84 0.39422126099470E-02
    85 -.38139401408432E-03
    86 -.73040364596885E-03
    87 -.94720635915611E-05
    88 -.11721356322467E-04
    89 -.93180344596758E-04
    90 -.21668168519902E-03
    91 -.55112731574493E-05
    92 0.87079069349458E-04
    93 0.22938979204578E-03
    94 0.21237122872769E-04
    95 0.37935481461665E-04
    96 0.35591315492645E-04
    97 -.21891672568873E-01
    98 -.21447947111577E-01
    99 -.45777880570864E-02
   100 0.87650960924740E-03
   101 -.32124683538751E-02
   102 0.21903970981226E-04
 Sym=     5a   
 Ene= -.49345778192936E+00
 Spin= Alpha
 Occup= 1.000000
     1 -.14863564493995E-01
     2 -.31347189728089E-01
     3 0.53532982031926E-01
     4 0.46645348045153E-01
     5 0.43894079574844E-01
     6 -.96985357091739E-01
     7 -.12306042342456E+00
     8 0.21948415458259E-01
     9 -.78297843101194E-01
    10 -.95236476595069E-01
    11 0.17879988479136E-01
    12 -.28639033441675E-01
    13 -.34351264884385E-01
    14 0.59901386569346E-02
    15 -.14229448206856E-02
    16 -.10760855946057E-02
    17 0.24990304152913E-02
    18 -.55013257733910E-02
    19 0.99743433397181E-03
    20 0.11731360218847E-02
    21 -.11773706353007E-02
    22 -.22763994212574E-02
    23 0.34537700565581E-02
    24 -.54716142554854E-02
    25 0.11763354648993E-02
    26 0.12364871736152E-02
    27 0.23270565858909E-03
    28 0.82262354164853E-04
    29 -.83352892958779E-04
    30 -.45141039680629E-03
    31 -.58064725329389E-03
    32 0.94861090915651E-05
    33 0.13920299399384E-03
    34 0.47028072375282E-03
    35 0.10234353177469E-03
    36 0.26655957333619E-03
    37 -.12299192367290E+00
    38 -.15237432291817E+00
    39 -.66701288323008E-01
    40 -.56911136305993E-03
    41 -.42178734163178E-02
    42 0.36102982703695E-03
    43 0.33280015200963E-01
    44 0.41621996824575E-01
    45 0.86817312112564E-02
    46 -.14384914162194E-03
    47 -.53414207199370E-02
    48 0.46902958125520E-02
    49 0.34274125506478E-01
    50 0.42530939446217E-01
    51 0.99458900206897E-02
    52 -.18281543830650E-02
    53 -.54827557020773E-02
    54 -.41670605470998E-02
    55 0.50237708456371E-01
    56 0.66886866897192E-01
    57 0.18050500548072E-01
    58 -.71922367318485E-02
    59 0.34368537160131E-02
    60 0.14566266857236E-02
    61 0.79350508463575E-02
    62 0.18722693118496E-01
    63 -.24888977620317E-01
    64 -.54672182979619E-01
    65 -.55618636236321E-01
    66 0.34126356468245E+00
    67 -.90786511463174E-02
    68 -.55974548569176E-01
    69 0.27986774693794E+00
    70 0.49908017910489E-02
    71 -.46577933446371E-01
    72 0.13022683072287E+00
    73 0.55109277379211E-02
    74 -.21772186183870E-01
    75 0.78734939168461E-03
    76 0.48684116665583E-04
    77 -.83603350835020E-03
    78 -.45898946612614E-02