      -----------------------------------------------------------      
     |                   =====================                   |     
     |                           x T B                           |     
     |                   =====================                   |     
     |                         S. Grimme                         |     
     |          Mulliken Center for Theoretical Chemistry        |     
     |                    University of Bonn                     |     
      -----------------------------------------------------------      

   * xtb version 6.5.1 (579679a) compiled by 'ehlert@majestix' on 2022-07-11

   xtb is free software: you can redistribute it and/or modify it under
   the terms of the GNU Lesser General Public License as published by
   the Free Software Foundation, either version 3 of the License, or
   (at your option) any later version.
   
   xtb is distributed in the hope that it will be useful,
   but WITHOUT ANY WARRANTY; without even the implied warranty of
   MERCHANTABILITY or FITNESS FOR A PARTICULAR PURPOSE.  See the
   GNU Lesser General Public License for more details.
   
   Cite this work as:
   * C. Bannwarth, E. Caldeweyher, S. Ehlert, A. Hansen, P. Pracht,
     J. Seibert, S. Spicher, S. Grimme, WIREs Comput. Mol. Sci., 2020, 11,
     e01493. DOI: 10.1002/wcms.1493
   
   for GFN2-xTB:
   * C. Bannwarth, S. Ehlert and S. Grimme., J. Chem. Theory Comput., 2019,
     15, 1652-1671. DOI: 10.1021/acs.jctc.8b01176
   for GFN1-xTB:
   * S. Grimme, C. Bannwarth, P. Shushkov, J. Chem. Theory Comput., 2017,
     13, 1989-2009. DOI: 10.1021/acs.jctc.7b00118
   for GFN0-xTB:
   * P. Pracht, E. Caldeweyher, S. Ehlert, S. Grimme, ChemRxiv, 2019, preprint.
     DOI: 10.26434/chemrxiv.8326202.v1
   for GFN-FF:
   * S. Spicher and S. Grimme, Angew. Chem. Int. Ed., 2020, 59, 15665-15673.
     DOI: 10.1002/anie.202004239
   
   for ALPB and GBSA implicit solvation:
   * S. Ehlert, M. Stahn, S. Spicher, S. Grimme, J. Chem. Theory Comput.,
     2021, 17, 4250-4261. DOI: 10.1021/acs.jctc.1c00471
   
   for DFT-D4:
   * E. Caldeweyher, C. Bannwarth and S. Grimme, J. Chem. Phys., 2017,
     147, 034112. DOI: 10.1063/1.4993215
   * E. Caldeweyher, S. Ehlert, A. Hansen, H. Neugebauer, S. Spicher,
     C. Bannwarth and S. Grimme, J. Chem. Phys., 2019, 150, 154122.
     DOI: 10.1063/1.5090222
   * E. Caldeweyher, J.-M. Mewes, S. Ehlert and S. Grimme, Phys. Chem. Chem. Phys.
     2020, 22, 8499-8512. DOI: 10.1039/D0CP00502A
   
   for sTDA-xTB:
   * S. Grimme and C. Bannwarth, J. Chem. Phys., 2016, 145, 054103.
     DOI: 10.1063/1.4959605
   
   in the mass-spec context:
   * V. Asgeirsson, C. Bauer and S. Grimme, Chem. Sci., 2017, 8, 4879.
     DOI: 10.1039/c7sc00601b
   * J. Koopman and S. Grimme, ACS Omega 2019, 4, 12, 15120-15133.
     DOI: 10.1021/acsomega.9b02011
   
   for metadynamics refer to:
   * S. Grimme, J. Chem. Theory Comput., 2019, 155, 2847-2862
     DOI: 10.1021/acs.jctc.9b00143
   
   for SPH calculations refer to:
   * S. Spicher and S. Grimme, J. Chem. Theory Comput., 2021, 17, 1701-1714
     DOI: 10.1021/acs.jctc.0c01306
   
   with help from (in alphabetical order)
   P. Atkinson, C. Bannwarth, F. Bohle, G. Brandenburg, E. Caldeweyher
   M. Checinski, S. Dohm, S. Ehlert, S. Ehrlich, I. Gerasimov, C. Hölzer
   A. Katbashev, J. Koopman, C. Lavigne, S. Lehtola, F. März, M. Müller,
   F. Musil, H. Neugebauer, J. Pisarek, C. Plett, P. Pracht, F. Pultar,
   J. Seibert, P. Shushkov, S. Spicher, M. Stahn, M. Steiner, T. Strunk,
   J. Stückrath, T. Rose, and J. Unsleber
   
 * started run on 2023/06/13 at 16:45:22.904     

           -------------------------------------------------
          |                Calculation Setup                |
           -------------------------------------------------

          program call               : xtb start.xyz --opt
          hostname                   : c04
          coordinate file            : start.xyz
          omp threads                :                     2

   ID    Z sym.   atoms
    1    6 C      1, 2, 7, 8, 11
    2    1 H      3, 4, 6, 9, 10, 12-14
    3    8 O      5

           -------------------------------------------------
          |                 G F N 2 - x T B                 |
           -------------------------------------------------

        Reference                      10.1021/acs.jctc.8b01176
      * Hamiltonian:
        H0-scaling (s, p, d)           1.850000    2.230000    2.230000
        zeta-weighting                 0.500000
      * Dispersion:
        s8                             2.700000
        a1                             0.520000
        a2                             5.000000
        s9                             5.000000
      * Repulsion:
        kExp                           1.500000    1.000000
        rExp                           1.000000
      * Coulomb:
        alpha                          2.000000
        third order                    shell-resolved
        anisotropic                    true
        a3                             3.000000
        a5                             4.000000
        cn-shift                       1.200000
        cn-exp                         4.000000
        max-rad                        5.000000


          ...................................................
          :                      SETUP                      :
          :.................................................:
          :  # basis functions                  32          :
          :  # atomic orbitals                  32          :
          :  # shells                           20          :
          :  # electrons                        34          :
          :  max. iterations                   250          :
          :  Hamiltonian                  GFN2-xTB          :
          :  restarted?                      false          :
          :  GBSA solvation                  false          :
          :  PC potential                    false          :
          :  electronic temp.          300.0000000     K    :
          :  accuracy                    1.0000000          :
          :  -> integral cutoff          0.2500000E+02      :
          :  -> integral neglect         0.1000000E-07      :
          :  -> SCF convergence          0.1000000E-05 Eh   :
          :  -> wf. convergence          0.1000000E-03 e    :
          :  Broyden damping             0.4000000          :
          ...................................................

 iter      E             dE          RMSdq      gap      omega  full diag
   1    -18.9873417 -0.189873E+02  0.441E+00    4.72       0.0  T
   2    -19.0193301 -0.319884E-01  0.273E+00    4.36       1.0  T
   3    -19.0121945  0.713555E-02  0.159E+00    4.44       1.0  T
   4    -19.0292967 -0.171022E-01  0.529E-01    4.31       1.0  T
   5    -19.0305322 -0.123549E-02  0.102E-01    4.38       1.0  T
   6    -19.0305662 -0.339576E-04  0.697E-02    4.38       1.0  T
   7    -19.0305927 -0.264853E-04  0.287E-02    4.38       1.0  T
   8    -19.0305946 -0.191337E-05  0.550E-03    4.38       4.9  T
   9    -19.0305946 -0.590020E-07  0.199E-03    4.38      13.5  T
  10    -19.0305946 -0.633570E-08  0.569E-04    4.38      47.0  T
  11    -19.0305946 -0.449862E-09  0.170E-04    4.38     157.5  T

   *** convergence criteria satisfied after 11 iterations ***

         #    Occupation            Energy/Eh            Energy/eV
      -------------------------------------------------------------
         1        2.0000           -0.7077597             -19.2591
       ...           ...                  ...                  ...
        11        2.0000           -0.4859697             -13.2239
        12        2.0000           -0.4597834             -12.5113
        13        2.0000           -0.4525188             -12.3137
        14        2.0000           -0.4458746             -12.1329
        15        2.0000           -0.4335333             -11.7970
        16        2.0000           -0.4045953             -11.0096
        17        2.0000           -0.3739633             -10.1761 (HOMO)
        18                         -0.2128621              -5.7923 (LUMO)
        19                         -0.1922362              -5.2310
        20                          0.0135173               0.3678
        21                          0.0869506               2.3660
        22                          0.1140008               3.1021
       ...                                ...                  ...
        32                          0.5739681              15.6185
      -------------------------------------------------------------
                  HL-Gap            0.1611012 Eh            4.3838 eV
             Fermi-level           -0.2934127 Eh           -7.9842 eV

 SCC (total)                   0 d,  0 h,  0 min,  0.005 sec
 SCC setup                      ...        0 min,  0.000 sec (  2.942%)
 Dispersion                     ...        0 min,  0.000 sec (  1.630%)
 classical contributions        ...        0 min,  0.000 sec (  0.331%)
 integral evaluation            ...        0 min,  0.001 sec ( 10.766%)
 iterations                     ...        0 min,  0.003 sec ( 54.718%)
 molecular gradient             ...        0 min,  0.001 sec ( 26.928%)
 printout                       ...        0 min,  0.000 sec (  1.940%)

         :::::::::::::::::::::::::::::::::::::::::::::::::::::
         ::                     SUMMARY                     ::
         :::::::::::::::::::::::::::::::::::::::::::::::::::::
         :: total energy             -18.769942886971 Eh    ::
         :: gradient norm              0.074217935933 Eh/a0 ::
         :: HOMO-LUMO gap              4.383787754467 eV    ::
         ::.................................................::
         :: SCC energy               -19.030594648325 Eh    ::
         :: -> isotropic ES            0.015916024501 Eh    ::
         :: -> anisotropic ES          0.004191152487 Eh    ::
         :: -> anisotropic XC          0.009893367178 Eh    ::
         :: -> dispersion             -0.008364261265 Eh    ::
         :: repulsion energy           0.260632956140 Eh    ::
         :: add. restraining           0.000000000000 Eh    ::
         :: total charge               0.000000000000 e     ::
         :::::::::::::::::::::::::::::::::::::::::::::::::::::

      ----------------------------------------------------------- 
     |                   =====================                   |
     |                        A N C O P T                        |
     |                   =====================                   |
     |               Approximate Normal Coordinate               |
     |                Rational Function Optimizer                |
      ----------------------------------------------------------- 

          ...................................................
          :                      SETUP                      :
          :.................................................:
          :   optimization level            normal          :
          :   max. optcycles                   200          :
          :   ANC micro-cycles                  20          :
          :   degrees of freedom                36          :
          :.................................................:
          :   RF solver                   davidson          :
          :   write xtbopt.log                true          :
          :   linear?                        false          :
          :   energy convergence         0.5000000E-05 Eh   :
          :   grad. convergence          0.1000000E-02 Eh/α :
          :   maximium RF displ.         1.0000000          :
          :   Hlow (freq-cutoff)         0.1000000E-01      :
          :   Hmax (freq-cutoff)         5.0000000          :
          :   S6 in model hess.         20.0000000          :
          ...................................................

generating ANC from model Hessian ...
Using Lindh-Hessian (1995)
 Shifting diagonal of input Hessian by   8.116870954489262E-003
 Lowest  eigenvalues of input Hessian
    0.000000    0.000000    0.000000    0.000000    0.000000    0.000000
    0.010000    0.012217    0.012936    0.020304    0.022327    0.022753
    0.041277    0.041793    0.053158    0.062399    0.067591    0.074471
 Highest eigenvalues
    1.174699    1.348517    1.487420    1.780076    1.854339    2.031897
 

........................................................................
.............................. CYCLE    1 ..............................
........................................................................
   1    -19.0305946 -0.190306E+02  0.487E-05    4.38       0.0  T
   2    -19.0305946 -0.556000E-11  0.308E-05    4.38     869.0  T
   3    -19.0305946 -0.565592E-11  0.185E-05    4.38    1447.5  T
     SCC iter.                  ...        0 min,  0.001 sec
     gradient                   ...        0 min,  0.001 sec
 * total energy  :   -18.7699429 Eh     change       -0.3372946E-10 Eh
   gradient norm :     0.0742179 Eh/α   predicted     0.0000000E+00 (-100.00%)
   displ. norm   :     0.2095268 α      lambda       -0.8837542E-02
   maximum displ.:     0.1172842 α      in ANC's #13, #23, #4, ...

........................................................................
.............................. CYCLE    2 ..............................
........................................................................
   1    -19.0522864 -0.190523E+02  0.284E-01    4.56       0.0  T
   2    -19.0523417 -0.553568E-04  0.172E-01    4.55       1.0  T
   3    -19.0523126  0.291109E-04  0.717E-02    4.56       1.0  T
   4    -19.0523450 -0.324124E-04  0.241E-02    4.55       1.1  T
   5    -19.0523510 -0.598176E-05  0.523E-03    4.55       5.1  T
   6    -19.0523510 -0.388043E-07  0.230E-03    4.55      11.6  T
   7    -19.0523511 -0.419251E-08  0.141E-03    4.55      19.0  T
   8    -19.0523511 -0.146141E-07  0.348E-04    4.55      76.7  T
   9    -19.0523511 -0.236824E-09  0.115E-04    4.55     232.6  T
     SCC iter.                  ...        0 min,  0.002 sec
     gradient                   ...        0 min,  0.002 sec
 * total energy  :   -18.7761239 Eh     change       -0.6180978E-02 Eh
   gradient norm :     0.0319154 Eh/α   predicted    -0.4612759E-02 ( -25.37%)
   displ. norm   :     0.1984631 α      lambda       -0.2887403E-02
   maximum displ.:     0.0863320 α      in ANC's #13, #3, #4, ...

........................................................................
.............................. CYCLE    3 ..............................
........................................................................
   1    -19.0602202 -0.190602E+02  0.224E-01    4.62       0.0  T
   2    -19.0602409 -0.206876E-04  0.134E-01    4.62       1.0  T
   3    -19.0602383  0.260336E-05  0.291E-02    4.63       1.0  T
   4    -19.0602417 -0.341609E-05  0.112E-02    4.62       2.4  T
   5    -19.0602429 -0.122687E-05  0.379E-03    4.62       7.1  T
   6    -19.0602429 -0.339767E-07  0.122E-03    4.62      21.9  T
   7    -19.0602429  0.180012E-09  0.659E-04    4.62      40.6  T
   8    -19.0602429 -0.312995E-08  0.197E-04    4.62     135.6  T
     SCC iter.                  ...        0 min,  0.002 sec
     gradient                   ...        0 min,  0.001 sec
 * total energy  :   -18.7776631 Eh     change       -0.1539243E-02 Eh
   gradient norm :     0.0057899 Eh/α   predicted    -0.1500562E-02 (  -2.51%)
   displ. norm   :     0.0802840 α      lambda       -0.1791408E-03
   maximum displ.:     0.0622988 α      in ANC's #3, #10, #6, ...

........................................................................
.............................. CYCLE    4 ..............................
........................................................................
   1    -19.0593850 -0.190594E+02  0.894E-02    4.62       0.0  T
   2    -19.0593853 -0.362246E-06  0.528E-02    4.62       1.0  T
   3    -19.0593851  0.216707E-06  0.532E-03    4.62       5.0  T
   4    -19.0593854 -0.282231E-06  0.178E-03    4.62      15.0  T
   5    -19.0593854 -0.285170E-07  0.736E-04    4.62      36.3  T
   6    -19.0593854 -0.786329E-09  0.151E-04    4.62     176.6  T
     SCC iter.                  ...        0 min,  0.002 sec
     gradient                   ...        0 min,  0.001 sec
 * total energy  :   -18.7777814 Eh     change       -0.1182767E-03 Eh
   gradient norm :     0.0035209 Eh/α   predicted    -0.9014578E-04 ( -23.78%)
   displ. norm   :     0.1241039 α      lambda       -0.1410357E-03
   maximum displ.:     0.1079294 α      in ANC's #3, #1, #4, ...

........................................................................
.............................. CYCLE    5 ..............................
........................................................................
   1    -19.0581869 -0.190582E+02  0.128E-01    4.61       0.0  T
   2    -19.0581874 -0.505551E-06  0.755E-02    4.61       1.0  T
   3    -19.0581865  0.908604E-06  0.977E-03    4.61       2.7  T
   4    -19.0581876 -0.110421E-05  0.220E-03    4.61      12.2  T
   5    -19.0581877 -0.238225E-07  0.110E-03    4.61      24.4  T
   6    -19.0581877 -0.872991E-09  0.210E-04    4.61     127.5  T
   7    -19.0581877 -0.270397E-10  0.115E-04    4.61     231.8  T
     SCC iter.                  ...        0 min,  0.002 sec
     gradient                   ...        0 min,  0.001 sec
 * total energy  :   -18.7778547 Eh     change       -0.7336013E-04 Eh
   gradient norm :     0.0030727 Eh/α   predicted    -0.7160742E-04 (  -2.39%)
   displ. norm   :     0.0514778 α      lambda       -0.4454976E-04
   maximum displ.:     0.0432440 α      in ANC's #3, #1, #7, ...

........................................................................
.............................. CYCLE    6 ..............................
........................................................................
   1    -19.0584698 -0.190585E+02  0.540E-02    4.61       0.0  T
   2    -19.0584698 -0.499156E-07  0.320E-02    4.61       1.0  T
   3    -19.0584697  0.162969E-06  0.415E-03    4.61       6.4  T
   4    -19.0584699 -0.200793E-06  0.748E-04    4.61      35.7  T
   5    -19.0584699 -0.154245E-09  0.335E-04    4.61      79.9  T
     SCC iter.                  ...        0 min,  0.001 sec
     gradient                   ...        0 min,  0.001 sec
 * total energy  :   -18.7778875 Eh     change       -0.3279662E-04 Eh
   gradient norm :     0.0021114 Eh/α   predicted    -0.2233373E-04 ( -31.90%)
   displ. norm   :     0.0845714 α      lambda       -0.5325676E-04
   maximum displ.:     0.0706447 α      in ANC's #3, #1, #9, ...

........................................................................
.............................. CYCLE    7 ..............................
........................................................................
   1    -19.0592528 -0.190593E+02  0.803E-02    4.62       0.0  T
   2    -19.0592529 -0.132827E-06  0.473E-02    4.62       1.0  T
   3    -19.0592527  0.204694E-06  0.489E-03    4.62       5.5  T
   4    -19.0592530 -0.276310E-06  0.111E-03    4.62      24.0  T
   5    -19.0592530 -0.261180E-08  0.554E-04    4.62      48.3  T
   6    -19.0592530  0.320128E-09  0.230E-04    4.62     116.2  T
     SCC iter.                  ...        0 min,  0.001 sec
     gradient                   ...        0 min,  0.001 sec
 * total energy  :   -18.7779218 Eh     change       -0.3429626E-04 Eh
   gradient norm :     0.0013610 Eh/α   predicted    -0.2681793E-04 ( -21.81%)
   displ. norm   :     0.1001488 α      lambda       -0.2293466E-04
   maximum displ.:     0.0828768 α      in ANC's #3, #1, #6, ...

........................................................................
.............................. CYCLE    8 ..............................
........................................................................
   1    -19.0594070 -0.190594E+02  0.994E-02    4.62       0.0  T
   2    -19.0594073 -0.208611E-06  0.587E-02    4.62       1.0  T
   3    -19.0594071  0.189410E-06  0.500E-03    4.62       5.3  T
   4    -19.0594073 -0.273482E-06  0.149E-03    4.62      17.9  T
   5    -19.0594073 -0.844080E-08  0.632E-04    4.62      42.3  T
   6    -19.0594073  0.391868E-09  0.268E-04    4.62      99.5  T
     SCC iter.                  ...        0 min,  0.002 sec
     gradient                   ...        0 min,  0.001 sec
 * total energy  :   -18.7779397 Eh     change       -0.1784285E-04 Eh
   gradient norm :     0.0015393 Eh/α   predicted    -0.1151715E-04 ( -35.45%)
   displ. norm   :     0.0440182 α      lambda       -0.1014152E-04
   maximum displ.:     0.0348572 α      in ANC's #3, #1, #5, ...

........................................................................
.............................. CYCLE    9 ..............................
........................................................................
   1    -19.0593720 -0.190594E+02  0.445E-02    4.62       0.0  T
   2    -19.0593721 -0.289355E-07  0.262E-02    4.62       1.0  T
   3    -19.0593720  0.102707E-06  0.329E-03    4.62       8.1  T
   4    -19.0593721 -0.125059E-06  0.454E-04    4.62      58.9  T
   5    -19.0593721 -0.148859E-09  0.175E-04    4.62     152.5  T
     SCC iter.                  ...        0 min,  0.001 sec
     gradient                   ...        0 min,  0.001 sec
 * total energy  :   -18.7779498 Eh     change       -0.1008757E-04 Eh
   gradient norm :     0.0007891 Eh/α   predicted    -0.5074206E-05 ( -49.70%)
   displ. norm   :     0.0477910 α      lambda       -0.7021287E-05
   maximum displ.:     0.0341581 α      in ANC's #3, #1, #2, ...

........................................................................
.............................. CYCLE   10 ..............................
........................................................................
   1    -19.0593152 -0.190593E+02  0.516E-02    4.62       0.0  T
   2    -19.0593152 -0.320087E-07  0.304E-02    4.62       1.0  T
   3    -19.0593152  0.430667E-07  0.228E-03    4.62      11.7  T
   4    -19.0593152 -0.591424E-07  0.462E-04    4.62      57.8  T
   5    -19.0593152 -0.571269E-09  0.205E-04    4.62     130.1  T
     SCC iter.                  ...        0 min,  0.001 sec
     gradient                   ...        0 min,  0.001 sec
 * total energy  :   -18.7779570 Eh     change       -0.7266613E-05 Eh
   gradient norm :     0.0006808 Eh/α   predicted    -0.3513411E-05 ( -51.65%)
   displ. norm   :     0.0607040 α      lambda       -0.5075062E-05
   maximum displ.:     0.0404253 α      in ANC's #3, #2, #1, ...

........................................................................
.............................. CYCLE   11 ..............................
........................................................................
   1    -19.0592638 -0.190593E+02  0.673E-02    4.62       0.0  T
   2    -19.0592638 -0.551141E-07  0.397E-02    4.62       1.0  T
   3    -19.0592637  0.160509E-06  0.409E-03    4.62       6.5  T
   4    -19.0592639 -0.195619E-06  0.562E-04    4.62      47.5  T
   5    -19.0592639 -0.523922E-09  0.236E-04    4.62     113.3  T
     SCC iter.                  ...        0 min,  0.002 sec
     gradient                   ...        0 min,  0.001 sec
 * total energy  :   -18.7779625 Eh     change       -0.5419315E-05 Eh
   gradient norm :     0.0007141 Eh/α   predicted    -0.2542105E-05 ( -53.09%)
   displ. norm   :     0.0705930 α      lambda       -0.4671886E-05
   maximum displ.:     0.0466592 α      in ANC's #2, #3, #1, ...

........................................................................
.............................. CYCLE   12 ..............................
........................................................................
   1    -19.0592452 -0.190592E+02  0.806E-02    4.62       0.0  T
   2    -19.0592453 -0.747114E-07  0.475E-02    4.62       1.0  T
   3    -19.0592451  0.179383E-06  0.436E-03    4.62       6.1  T
   4    -19.0592453 -0.222455E-06  0.652E-04    4.62      41.0  T
   5    -19.0592453 -0.961904E-09  0.315E-04    4.62      84.7  T
     SCC iter.                  ...        0 min,  0.002 sec
     gradient                   ...        0 min,  0.002 sec
 * total energy  :   -18.7779668 Eh     change       -0.4352586E-05 Eh
   gradient norm :     0.0004856 Eh/α   predicted    -0.2339726E-05 ( -46.25%)
   displ. norm   :     0.0239432 α      lambda       -0.2044332E-05
   maximum displ.:     0.0210605 α      in ANC's #2, #3, #6, ...

   *** GEOMETRY OPTIMIZATION CONVERGED AFTER 12 ITERATIONS ***

------------------------------------------------------------------------
 total energy gain   :        -0.0080239 Eh       -5.0351 kcal/mol
 total RMSD          :         0.2206984 a0        0.1168 Å
 total power (kW/mol):        -1.7555664 (step) -412.6144 (real)
------------------------------------------------------------------------

 ANCopt (total)                0 d,  0 h,  0 min,  0.051 sec
 optimizer setup                ...        0 min,  0.000 sec (  0.215%)
 model hessian                  ...        0 min,  0.003 sec (  6.408%)
 ANC generation                 ...        0 min,  0.000 sec (  0.470%)
 coordinate transformation      ...        0 min,  0.000 sec (  0.253%)
 single point calculation       ...        0 min,  0.045 sec ( 87.535%)
 optimization log               ...        0 min,  0.001 sec (  1.595%)
 hessian update                 ...        0 min,  0.000 sec (  0.213%)
 rational function              ...        0 min,  0.001 sec (  1.985%)

================
 final structure:
================
14
 xtb: 6.5.1 (579679a)
C           -7.97463752984461        1.19955626852457       -0.70312117661625
C           -7.67796142729384        1.88658202833487        0.38807284094034
H           -8.98272464152398        0.87193397329873       -0.87270686629156
H           -7.24739303833367        0.92815821162334       -1.44683717734035
O           -6.48752172266311        2.40370031474751        0.77490847902943
H           -8.42639863028961        2.12928856306041        1.13138177359717
C           -5.38850150809193        2.26757653227145       -0.09797021934981
C           -4.77185679362350        0.89746530907307       -0.14307597629154
H           -4.64201156562200        2.98032933523347        0.27369940338398
H           -5.67242843373353        2.57697173988198       -1.11498646216150
C           -5.08902370934110       -0.10496810067709        0.65282950313262
H           -4.00201079030990        0.79445385446537       -0.89645315637717
H           -5.85019711441709       -0.00723565879047        1.40896249379475
H           -4.60400309491217       -1.06286237104718        0.57850654054990
 
 Bond Distances (Angstroems)
 ---------------------------
C1-C2=1.3231         C1-H3=1.0735         C1-H4=1.0750         C2-C1=1.3231         C2-O5=1.3543         C2-H6=1.0824         
H3-C1=1.0735         H4-C1=1.0750         O5-C2=1.3543         O5-C7=1.4101         H6-C2=1.0824         C7-O5=1.4101         
C7-C8=1.5032         C7-H9=1.0970         C7-H10=1.1003        C8-C7=1.5032         C8-C11=1.3187        C8-H12=1.0821        
H9-C7=1.0970         H10-C7=1.1003        C11-C8=1.3187        C11-H13=1.0773       C11-H14=1.0763       H12-C8=1.0821        
H13-C11=1.0773       H14-C11=1.0763       
 C  H  Rav=1.0830 sigma=0.0095  Rmin=1.0735  Rmax=1.1003     8
 C  C  Rav=1.3817 sigma=0.0859  Rmin=1.3187  Rmax=1.5032     3
 O  C  Rav=1.3822 sigma=0.0279  Rmin=1.3543  Rmax=1.4101     2
 
 selected bond angles (degree)
 --------------------
H3-C1-C2=119.95                H4-C1-C2=123.36                H4-C1-H3=116.68                O5-C2-C1=129.12                
H6-C2-C1=121.85                H6-C2-O5=109.03                C7-O5-C2=118.13                C8-C7-O5=115.23                
H9-C7-O5=104.95                H9-C7-C8=108.86                H10-C7-O5=110.12               H10-C7-C8=109.54               
H10-C7-H9=107.82               C11-C8-C7=125.18               H12-C8-C7=113.55               H12-C8-C11=121.26              
 
 selected dihedral angles (degree)
 ---------------------------------
O5-C2-C1-H3=181.14            O5-C2-C1-H4=  2.04            H6-C2-C1-H3=  0.38            H6-C2-C1-H4=181.28            
C7-O5-C2-C1=  3.01            C7-O5-C2-H6=183.69            C8-C7-O5-C2=284.30            H9-C7-O5-C2=164.58            
H10-C7-O5-C2= 48.79           C11-C8-C7-O5=352.65           C11-C8-C7-H9=110.18           C11-C8-C7-H10=227.85          
H12-C8-C7-O5=173.80           H12-C8-C7-H9=291.33           H12-C8-C7-H10= 49.00          
           -------------------------------------------------
          |                Final Singlepoint                |
           -------------------------------------------------

          ...................................................
          :                      SETUP                      :
          :.................................................:
          :  # basis functions                  32          :
          :  # atomic orbitals                  32          :
          :  # shells                           20          :
          :  # electrons                        34          :
          :  max. iterations                   250          :
          :  Hamiltonian                  GFN2-xTB          :
          :  restarted?                      false          :
          :  GBSA solvation                  false          :
          :  PC potential                    false          :
          :  electronic temp.          300.0000000     K    :
          :  accuracy                    1.0000000          :
          :  -> integral cutoff          0.2500000E+02      :
          :  -> integral neglect         0.1000000E-07      :
          :  -> SCF convergence          0.1000000E-05 Eh   :
          :  -> wf. convergence          0.1000000E-03 e    :
          :  Broyden damping             0.4000000          :
          ...................................................

 iter      E             dE          RMSdq      gap      omega  full diag
   1    -19.0592453 -0.190592E+02  0.128E-04    4.62       0.0  T
   2    -19.0592453 -0.249862E-10  0.110E-04    4.62     242.1  T
   3    -19.0592453 -0.129273E-09  0.323E-05    4.62     826.5  T

   *** convergence criteria satisfied after 3 iterations ***

         #    Occupation            Energy/Eh            Energy/eV
      -------------------------------------------------------------
         1        2.0000           -0.7104909             -19.3334
       ...           ...                  ...                  ...
        11        2.0000           -0.4873504             -13.2615
        12        2.0000           -0.4632261             -12.6050
        13        2.0000           -0.4598252             -12.5125
        14        2.0000           -0.4449244             -12.1070
        15        2.0000           -0.4359479             -11.8627
        16        2.0000           -0.4093839             -11.1399
        17        2.0000           -0.3786232             -10.3029 (HOMO)
        18                         -0.2089825              -5.6867 (LUMO)
        19                         -0.1870026              -5.0886
        20                          0.0387415               1.0542
        21                          0.0958658               2.6086
        22                          0.1186805               3.2295
       ...                                ...                  ...
        32                          0.6412101              17.4482
      -------------------------------------------------------------
                  HL-Gap            0.1696407 Eh            4.6162 eV
             Fermi-level           -0.2938029 Eh           -7.9948 eV

 SCC (total)                   0 d,  0 h,  0 min,  0.004 sec
 SCC setup                      ...        0 min,  0.000 sec (  3.153%)
 Dispersion                     ...        0 min,  0.000 sec (  1.373%)
 classical contributions        ...        0 min,  0.000 sec (  0.445%)
 integral evaluation            ...        0 min,  0.001 sec ( 22.187%)
 iterations                     ...        0 min,  0.001 sec ( 34.146%)
 molecular gradient             ...        0 min,  0.001 sec ( 34.359%)
 printout                       ...        0 min,  0.000 sec (  3.102%)

         :::::::::::::::::::::::::::::::::::::::::::::::::::::
         ::                     SUMMARY                     ::
         :::::::::::::::::::::::::::::::::::::::::::::::::::::
         :: total energy             -18.777966806130 Eh    ::
         :: gradient norm              0.000485129495 Eh/a0 ::
         :: HOMO-LUMO gap              4.616159481038 eV    ::
         ::.................................................::
         :: SCC energy               -19.059245329919 Eh    ::
         :: -> isotropic ES            0.015744025246 Eh    ::
         :: -> anisotropic ES          0.003649123025 Eh    ::
         :: -> anisotropic XC          0.010091340410 Eh    ::
         :: -> dispersion             -0.008391915301 Eh    ::
         :: repulsion energy           0.281259813034 Eh    ::
         :: add. restraining           0.000000000000 Eh    ::
         :: total charge              -0.000000000000 e     ::
         :::::::::::::::::::::::::::::::::::::::::::::::::::::

           -------------------------------------------------
          |                Property Printout                |
           -------------------------------------------------

    * Orbital Energies and Occupations

         #    Occupation            Energy/Eh            Energy/eV
      -------------------------------------------------------------
         1        2.0000           -0.7104909             -19.3334
       ...           ...                  ...                  ...
         5        2.0000           -0.5818699             -15.8335
         6        2.0000           -0.5582359             -15.1904
         7        2.0000           -0.5534076             -15.0590
         8        2.0000           -0.5368964             -14.6097
         9        2.0000           -0.5176863             -14.0870
        10        2.0000           -0.4949119             -13.4672
        11        2.0000           -0.4873504             -13.2615
        12        2.0000           -0.4632261             -12.6050
        13        2.0000           -0.4598252             -12.5125
        14        2.0000           -0.4449244             -12.1070
        15        2.0000           -0.4359479             -11.8627
        16        2.0000           -0.4093839             -11.1399
        17        2.0000           -0.3786232             -10.3029 (HOMO)
        18                         -0.2089825              -5.6867 (LUMO)
        19                         -0.1870026              -5.0886
        20                          0.0387415               1.0542
        21                          0.0958658               2.6086
        22                          0.1186805               3.2295
        23                          0.1420223               3.8646
        24                          0.1430452               3.8925
        25                          0.1595565               4.3418
        26                          0.1993921               5.4257
        27                          0.2148756               5.8471
        28                          0.2727011               7.4206
       ...                                ...                  ...
        32                          0.6412101              17.4482
      -------------------------------------------------------------
                  HL-Gap            0.1696407 Eh            4.6162 eV
             Fermi-level           -0.2938029 Eh           -7.9948 eV

     #   Z          covCN         q      C6AA      α(0)
     1   6 C        2.833    -0.140    31.568     9.207
     2   6 C        2.784     0.102    25.722     8.307
     3   1 H        0.926     0.037     2.491     2.468
     4   1 H        0.926     0.038     2.470     2.458
     5   8 O        1.704    -0.262    18.340     5.782
     6   1 H        0.925     0.045     2.384     2.414
     7   6 C        3.701     0.078    19.432     6.304
     8   6 C        2.883    -0.040    28.981     8.826
     9   1 H        0.924     0.058     2.228     2.334
    10   1 H        0.923     0.039     2.457     2.451
    11   6 C        2.836    -0.083    30.068     8.986
    12   1 H        0.925     0.036     2.507     2.476
    13   1 H        0.926     0.050     2.315     2.379
    14   1 H        0.926     0.041     2.439     2.442

 Mol. C6AA /au·bohr⁶  :       1813.572062
 Mol. C8AA /au·bohr⁸  :      40678.355544
 Mol. α(0) /au        :         66.834749


Wiberg/Mayer (AO) data.
largest (>0.10) Wiberg bond orders for each atom

 ---------------------------------------------------------------------------
     #   Z sym  total        # sym  WBO       # sym  WBO       # sym  WBO
 ---------------------------------------------------------------------------
     1   6 C    3.978 --     2 C    1.871     3 H    0.978     4 H    0.973
                             5 O    0.137
     2   6 C    3.935 --     1 C    1.871     5 O    1.080     6 H    0.956
     3   1 H    0.999 --     1 C    0.978
     4   1 H    0.999 --     1 C    0.973
     5   8 O    2.254 --     2 C    1.080     7 C    0.975     1 C    0.137
     6   1 H    0.998 --     2 C    0.956
     7   6 C    3.951 --     8 C    1.010     5 O    0.975    10 H    0.955
                             9 H    0.952
     8   6 C    3.990 --    11 C    1.982     7 C    1.010    12 H    0.965
     9   1 H    0.997 --     7 C    0.952
    10   1 H    0.998 --     7 C    0.955
    11   6 C    3.992 --     8 C    1.982    14 H    0.976    13 H    0.974
    12   1 H    0.999 --     8 C    0.965
    13   1 H    0.997 --    11 C    0.974
    14   1 H    0.998 --    11 C    0.976
 ---------------------------------------------------------------------------

Topologies differ in total number of bonds
Writing topology from bond orders to xtbtopo.mol

molecular dipole:
                 x           y           z       tot (Debye)
 q only:        0.217      -0.063      -0.234
   full:        0.239      -0.061      -0.350       1.088
molecular quadrupole (traceless):
                xx          xy          yy          xz          yz          zz
 q only:       -3.327       2.543       1.686       3.011      -2.091       1.641
  q+dip:       -4.438       2.562       1.955       4.004      -2.690       2.484
   full:       -3.867       2.626       1.818       4.513      -2.835       2.049

           -------------------------------------------------
          |                Geometry Summary                 |
           -------------------------------------------------

      molecular mass/u    :       84.1166104
   center of mass at/Å    :       -6.2386219       1.4451664       0.1499591
  moments of inertia/u·Å² :        0.8807509E+02   0.1778621E+03   0.2105742E+03
rotational constants/cm⁻¹ :        0.1914007E+00   0.9477923E-01   0.8005553E-01

 * 12 selected distances

     #   Z          #   Z                                           value/Å
     1   6 C        2   6 C                                       1.3231500
     1   6 C        3   1 H                                       1.0734689 (min)
     1   6 C        4   1 H                                       1.0750140
     2   6 C        5   8 O                                       1.3543265
     2   6 C        6   1 H                                       1.0823923
     5   8 O        7   6 C                                       1.4100683 (max)
     7   6 C        9   1 H                                       1.0969970
     7   6 C       10   1 H                                       1.1003009
     8   6 C       11   6 C                                       1.3186863
     8   6 C       12   1 H                                       1.0820590
    11   6 C       13   1 H                                       1.0773458
    11   6 C       14   1 H                                       1.0762577

 * 3 distinct bonds (by element types)

   Z      Z             #   av. dist./Å        max./Å        min./Å
   1 H    6 C           8     1.0829794     1.1003009     1.0734689
   6 C    6 C           2     1.3209181     1.3231500     1.3186863
   6 C    8 O           2     1.3821974     1.4100683     1.3543265


optimized geometry written to: xtbopt.xyz


           -------------------------------------------------
          | TOTAL ENERGY              -18.777966806130 Eh   |
          | GRADIENT NORM               0.000485129495 Eh/α |
          | HOMO-LUMO GAP               4.616159481038 eV   |
           -------------------------------------------------

------------------------------------------------------------------------
 * finished run on 2023/06/13 at 16:45:22.994     
------------------------------------------------------------------------
 total:
 * wall-time:     0 d,  0 h,  0 min,  0.090 sec
 *  cpu-time:     0 d,  0 h,  0 min,  0.154 sec
 * ratio c/w:     1.712 speedup
 SCF:
 * wall-time:     0 d,  0 h,  0 min,  0.006 sec
 *  cpu-time:     0 d,  0 h,  0 min,  0.011 sec
 * ratio c/w:     2.001 speedup
 ANC optimizer:
 * wall-time:     0 d,  0 h,  0 min,  0.056 sec
 *  cpu-time:     0 d,  0 h,  0 min,  0.111 sec
 * ratio c/w:     2.000 speedup

