
                                 *****************
                                 * O   R   C   A *
                                 *****************

                                            #,                                       
                                            ###                                      
                                            ####                                     
                                            #####                                    
                                            ######                                   
                                           ########,                                 
                                     ,,################,,,,,                         
                               ,,#################################,,                 
                          ,,##########################################,,             
                       ,#########################################, ''#####,          
                    ,#############################################,,   '####,        
                  ,##################################################,,,,####,       
                ,###########''''           ''''###############################       
              ,#####''   ,,,,##########,,,,          '''####'''          '####       
            ,##' ,,,,###########################,,,                        '##       
           ' ,,###''''                  '''############,,,                           
         ,,##''                                '''############,,,,        ,,,,,,###''
      ,#''                                            '''#######################'''  
     '                                                          ''''####''''         
             ,#######,   #######,   ,#######,      ##                                
            ,#'     '#,  ##    ##  ,#'     '#,    #''#        ######   ,####,        
            ##       ##  ##   ,#'  ##            #'  '#       #        #'  '#        
            ##       ##  #######   ##           ,######,      #####,   #    #        
            '#,     ,#'  ##    ##  '#,     ,#' ,#      #,         ##   #,  ,#        
             '#######'   ##     ##  '#######'  #'      '#     #####' # '####'        



                  #######################################################
                  #                        -***-                        #
                  #          Department of theory and spectroscopy      #
                  #    Directorship and core code : Frank Neese         #
                  #        Max Planck Institute fuer Kohlenforschung    #
                  #                Kaiser Wilhelm Platz 1               #
                  #                 D-45470 Muelheim/Ruhr               #
                  #                      Germany                        #
                  #                                                     #
                  #                  All rights reserved                #
                  #                        -***-                        #
                  #######################################################


                         Program Version 5.0.2 -  RELEASE  -


 With contributions from (in alphabetic order):
   Daniel Aravena         : Magnetic Suceptibility
   Michael Atanasov       : Ab Initio Ligand Field Theory (pilot matlab implementation)
   Alexander A. Auer      : GIAO ZORA, VPT2 properties, NMR spectrum
   Ute Becker             : Parallelization
   Giovanni Bistoni       : ED, misc. LED, open-shell LED, HFLD
   Martin Brehm           : Molecular dynamics
   Dmytro Bykov           : SCF Hessian
   Vijay G. Chilkuri      : MRCI spin determinant printing, contributions to CSF-ICE
   Dipayan Datta          : RHF DLPNO-CCSD density
   Achintya Kumar Dutta   : EOM-CC, STEOM-CC
   Dmitry Ganyushin       : Spin-Orbit,Spin-Spin,Magnetic field MRCI
   Miquel Garcia          : C-PCM and meta-GGA Hessian, CC/C-PCM, Gaussian charge scheme
   Yang Guo               : DLPNO-NEVPT2, F12-NEVPT2, CIM, IAO-localization
   Andreas Hansen         : Spin unrestricted coupled pair/coupled cluster methods
   Benjamin Helmich-Paris : MC-RPA, TRAH-SCF, COSX integrals
   Lee Huntington         : MR-EOM, pCC
   Robert Izsak           : Overlap fitted RIJCOSX, COSX-SCS-MP3, EOM
   Marcus Kettner         : VPT2
   Christian Kollmar      : KDIIS, OOCD, Brueckner-CCSD(T), CCSD density, CASPT2, CASPT2-K
   Simone Kossmann        : Meta GGA functionals, TD-DFT gradient, OOMP2, MP2 Hessian
   Martin Krupicka        : Initial AUTO-CI
   Lucas Lang             : DCDCAS
   Marvin Lechner         : AUTO-CI (C++ implementation), FIC-MRCC
   Dagmar Lenk            : GEPOL surface, SMD
   Dimitrios Liakos       : Extrapolation schemes; Compound Job, initial MDCI parallelization
   Dimitrios Manganas     : Further ROCIS development; embedding schemes
   Dimitrios Pantazis     : SARC Basis sets
   Anastasios Papadopoulos: AUTO-CI, single reference methods and gradients
   Taras Petrenko         : DFT Hessian,TD-DFT gradient, ASA, ECA, R-Raman, ABS, FL, XAS/XES, NRVS
   Peter Pinski           : DLPNO-MP2, DLPNO-MP2 Gradient
   Christoph Reimann      : Effective Core Potentials
   Marius Retegan         : Local ZFS, SOC
   Christoph Riplinger    : Optimizer, TS searches, QM/MM, DLPNO-CCSD(T), (RO)-DLPNO pert. Triples
   Tobias Risthaus        : Range-separated hybrids, TD-DFT gradient, RPA, STAB
   Michael Roemelt        : Original ROCIS implementation
   Masaaki Saitow         : Open-shell DLPNO-CCSD energy and density
   Barbara Sandhoefer     : DKH picture change effects
   Avijit Sen             : IP-ROCIS
   Kantharuban Sivalingam : CASSCF convergence, NEVPT2, FIC-MRCI
   Bernardo de Souza      : ESD, SOC TD-DFT
   Georgi Stoychev        : AutoAux, RI-MP2 NMR, DLPNO-MP2 response
   Willem Van den Heuvel  : Paramagnetic NMR
   Boris Wezisla          : Elementary symmetry handling
   Frank Wennmohs         : Technical directorship


 We gratefully acknowledge several colleagues who have allowed us to
 interface, adapt or use parts of their codes:
   Stefan Grimme, W. Hujo, H. Kruse, P. Pracht,  : VdW corrections, initial TS optimization,
                  C. Bannwarth, S. Ehlert          DFT functionals, gCP, sTDA/sTD-DF
   Ed Valeev, F. Pavosevic, A. Kumar             : LibInt (2-el integral package), F12 methods
   Garnet Chan, S. Sharma, J. Yang, R. Olivares  : DMRG
   Ulf Ekstrom                                   : XCFun DFT Library
   Mihaly Kallay                                 : mrcc  (arbitrary order and MRCC methods)
   Jiri Pittner, Ondrej Demel                    : Mk-CCSD
   Frank Weinhold                                : gennbo (NPA and NBO analysis)
   Christopher J. Cramer and Donald G. Truhlar   : smd solvation model
   Lars Goerigk                                  : TD-DFT with DH, B97 family of functionals
   V. Asgeirsson, H. Jonsson                     : NEB implementation
   FAccTs GmbH                                   : IRC, NEB, NEB-TS, DLPNO-Multilevel, CI-OPT
                                                   MM, QMMM, 2- and 3-layer-ONIOM, Crystal-QMMM,
                                                   LR-CPCM, SF, NACMEs, symmetry and pop. for TD-DFT,
                                                   nearIR, NL-DFT gradient (VV10), updates on ESD,
                                                   ML-optimized integration grids
   S Lehtola, MJT Oliveira, MAL Marques          : LibXC Library
   Liviu Ungur et al                             : ANISO software


 Your calculation uses the libint2 library for the computation of 2-el integrals
 For citations please refer to: http://libint.valeyev.net

 Your ORCA version has been built with support for libXC version: 5.1.0
 For citations please refer to: https://tddft.org/programs/libxc/

 This ORCA versions uses:
   CBLAS   interface :  Fast vector & matrix operations
   LAPACKE interface :  Fast linear algebra routines
   SCALAPACK package :  Parallel linear algebra routines
   Shared memory     :  Shared parallel matrices
   BLAS/LAPACK       :  OpenBLAS 0.3.15  USE64BITINT DYNAMIC_ARCH NO_AFFINITY Haswell SINGLE_THREADED
        Core in use  :  Haswell
   Copyright (c) 2011-2014, The OpenBLAS Project


================================================================================

----- Orbital basis set information -----
Your calculation utilizes the basis: def2-TZVP
   F. Weigend and R. Ahlrichs, Phys. Chem. Chem. Phys. 7, 3297 (2005).

================================================================================
                                        WARNINGS
                       Please study these warnings very carefully!
================================================================================


WARNING: Broken symmetry calculations need fully converged wavefunctions
  ===> : Setting SCFConvForced true
         You can overwrite this default with %scf ConvForced false 


INFO   : the flag for use of the SHARK integral package has been found!

================================================================================
                                       INPUT FILE
================================================================================
NAME = h.in
|  1> ! UHF def2-TZVP TightSCF
|  2> 
|  3> %scf BrokenSym 1,1 end
|  4> 
|  5> * xyz 0 2
|  6> H 0 0 0
|  7> **                         ****END OF INPUT****
================================================================================

                       ****************************
                       * Single Point Calculation *
                       ****************************

---------------------------------
CARTESIAN COORDINATES (ANGSTROEM)
---------------------------------
  H      0.000000    0.000000    0.000000

----------------------------
CARTESIAN COORDINATES (A.U.)
----------------------------
  NO LB      ZA    FRAG     MASS         X           Y           Z
   0 H     1.0000    0     1.008    0.000000    0.000000    0.000000

--------------------------------
INTERNAL COORDINATES (ANGSTROEM)
--------------------------------
 H      0   0   0     0.000000000000     0.00000000     0.00000000

---------------------------
INTERNAL COORDINATES (A.U.)
---------------------------
 H      0   0   0     0.000000000000     0.00000000     0.00000000

---------------------
BASIS SET INFORMATION
---------------------
There are 1 groups of distinct atoms

 Group   1 Type H   : 5s1p contracted to 3s1p pattern {311/1}

Atom   0H    basis set group =>   1
------------------------------------------------------------------------------
                           ORCA GTO INTEGRAL CALCULATION
------------------------------------------------------------------------------
------------------------------------------------------------------------------
                   ___                                                        
                  /   \      - P O W E R E D   B Y -                         
                 /     \                                                     
                 |  |  |   _    _      __       _____    __    __             
                 |  |  |  | |  | |    /  \     |  _  \  |  |  /  |          
                  \  \/   | |  | |   /    \    | | | |  |  | /  /          
                 / \  \   | |__| |  /  /\  \   | |_| |  |  |/  /          
                |  |  |   |  __  | /  /__\  \  |    /   |      \           
                |  |  |   | |  | | |   __   |  |    \   |  |\   \          
                \     /   | |  | | |  |  |  |  | |\  \  |  | \   \       
                 \___/    |_|  |_| |__|  |__|  |_| \__\ |__|  \__/        
                                                                              
                      - O R C A' S   B I G   F R I E N D -                    
                                      &                                       
                       - I N T E G R A L  F E E D E R -                       
                                                                              
 v1 FN, 2020, v2 2021                                                         
------------------------------------------------------------------------------


Reading SHARK input file h.in.SHARKINP.tmp ... ok
----------------------
SHARK INTEGRAL PACKAGE
----------------------

Number of atoms                             ...      1
Number of basis functions                   ...      6
Number of shells                            ...      4
Maximum angular momentum                    ...      1
Integral batch strategy                     ... SHARK/LIBINT Hybrid
RI-J (if used) integral strategy            ... SPLIT-RIJ (Revised 2003 algorithm where possible)
Printlevel                                  ...      1
Contraction scheme used                     ... SEGMENTED contraction
Coulomb Range Separation                    ... NOT USED
Exchange Range Separation                   ... NOT USED
Finite Nucleus Model                        ... NOT USED
Auxiliary Coulomb fitting basis             ... NOT available
Auxiliary J/K fitting basis                 ... NOT available
Auxiliary Correlation fitting basis         ... NOT available
Auxiliary 'external' fitting basis          ... NOT available
Integral threshold                          ...     2.500000e-11
Primitive cut-off                           ...     2.500000e-12
Primitive pair pre-selection threshold      ...     2.500000e-12

Calculating pre-screening integrals         ... done (  0.0 sec) Dimension = 4
Organizing shell pair data                  ... done (  0.1 sec)
Shell pair information
Total number of shell pairs                 ...        10
Shell pairs after pre-screening             ...        10
Total number of primitive shell pairs       ...        24
Primitive shell pairs kept                  ...        24
          la=0 lb=0:      6 shell pairs
          la=1 lb=0:      3 shell pairs
          la=1 lb=1:      1 shell pairs

Calculating one electron integrals          ... done (  0.0 sec)
Calculating Nuclear repulsion               ... done (  0.0 sec) ENN=      0.000000000000 Eh

SHARK setup successfully completed in   0.6 seconds

Maximum memory used throughout the entire GTOINT-calculation: 3.8 MB
-------------------------------------------------------------------------------
                                 ORCA SCF
-------------------------------------------------------------------------------

------------
SCF SETTINGS
------------
Hamiltonian:
 Ab initio Hamiltonian  Method          .... Hartree-Fock(GTOs)


General Settings:
 Integral files         IntName         .... h.in
 Hartree-Fock type      HFTyp           .... UHF
 Total Charge           Charge          ....    0
 Multiplicity           Mult            ....    2
 Number of Electrons    NEL             ....    1
 Basis Dimension        Dim             ....    6
 Nuclear Repulsion      ENuc            ....      0.0000000000 Eh

Convergence Acceleration:
 DIIS                   CNVDIIS         .... on
   Start iteration      DIISMaxIt       ....    12
   Startup error        DIISStart       ....  0.200000
   # of expansion vecs  DIISMaxEq       ....     5
   Bias factor          DIISBfac        ....   1.050
   Max. coefficient     DIISMaxC        ....  10.000
 Trust-Rad. Augm. Hess. CNVTRAH         .... auto
   Auto Start mean grad. ratio tolernc. ....  1.125000
   Auto Start start iteration           ....    20
   Auto Start num. interpolation iter.  ....    10
   Max. Number of Micro iterations      ....    16
   Max. Number of Macro iterations      .... Maxiter - #DIIS iter
   Number of Davidson start vectors     ....     2
   Converg. threshold I  (grad. norm)   ....   1.000e-05
   Converg. threshold II (energy diff.) ....   1.000e-08
   Grad. Scal. Fac. for Micro threshold ....   0.100
   Minimum threshold for Micro iter.    ....   0.010
   NR start threshold (gradient norm)   ....   0.001
   Initial trust radius                 ....   0.400
   Minimum AH scaling param. (alpha)    ....   1.000
   Maximum AH scaling param. (alpha)    .... 1000.000
   Orbital update algorithm             .... Taylor
   White noise on init. David. guess    .... on
   Maximum white noise                  ....   0.010
   Quad. conv. algorithm                .... NR
 SOSCF                  CNVSOSCF        .... off
 Level Shifting         CNVShift        .... on
   Level shift para.    LevelShift      ....    0.2500
   Turn off err/grad.   ShiftErr        ....    0.0010
 Zerner damping         CNVZerner       .... off
 Static damping         CNVDamp         .... on
   Fraction old density DampFac         ....    0.7000
   Max. Damping (<1)    DampMax         ....    0.9800
   Min. Damping (>=0)   DampMin         ....    0.0000
   Turn off err/grad.   DampErr         ....    0.1000
 Fernandez-Rico         CNVRico         .... off

SCF Procedure:
 Maximum # iterations   MaxIter         ....   125
 SCF integral mode      SCFMode         .... Direct
   Integral package                     .... SHARK and LIBINT hybrid scheme
 Reset frequency        DirectResetFreq ....    20
 Integral Threshold     Thresh          ....  2.500e-11 Eh
 Primitive CutOff       TCut            ....  2.500e-12 Eh

Convergence Tolerance:
 Convergence Check Mode ConvCheckMode   .... Total+1el-Energy
 Convergence forced     ConvForced      .... 1
 Energy Change          TolE            ....  1.000e-08 Eh
 1-El. energy change                    ....  1.000e-05 Eh
 DIIS Error             TolErr          ....  5.000e-07


The Broken Symmetry feature is operative
   Number of electrons in the 'A' domain  ... 1
   Number of electrons in the 'B' domain  ... 1
We will first do a calculation with S=  1.0
and then try to converge to the broken symmetry state with Ms=  0.0


Diagonalization of the overlap matrix:
Smallest eigenvalue                        ... 1.094e-01
Time for diagonalization                   ...    0.000 sec
Threshold for overlap eigenvalues          ... 1.000e-08
Number of eigenvalues below threshold      ... 0
Time for construction of square roots      ...    0.069 sec
Total time needed                          ...    0.077 sec

Time for model grid setup =    0.060 sec

------------------------------
INITIAL GUESS: MODEL POTENTIAL
------------------------------
Loading Hartree-Fock densities                     ... done
Calculating cut-offs                               ... done
Initializing the effective Hamiltonian             ... done
Setting up the integral package (SHARK)            ... done
Starting the Coulomb interaction                   ... done (   0.1 sec)
Reading the grid                                   ... done
Mapping shells                                     ... done
Starting the XC term evaluation                    ... done (   0.0 sec)
Transforming the Hamiltonian                       ... done (   0.0 sec)
Diagonalizing the Hamiltonian                      ... done (   0.0 sec)
Back transforming the eigenvectors                 ... done (   0.0 sec)
Now organizing SCF variables                       ... done
                      ------------------
                      INITIAL GUESS DONE (   0.3 sec)
                      ------------------
--------------
SCF ITERATIONS
--------------
ITER       Energy         Delta-E        Max-DP      RMS-DP      [F,P]     Damp
               ***  Starting incremental Fock matrix formation  ***
  0     -0.1481948784   0.000000000000 0.01579221  0.00279432  0.0287479 0.7000
  1     -0.1485206747  -0.000325796310 0.01288974  0.00228175  0.0219075 0.7000
                               ***Turning on DIIS***
  2     -0.1487669591  -0.000246284371 0.03174309  0.00561207  0.0163152 0.0000
  3     -0.1495227457  -0.000755786650 0.00334349  0.00058325  0.0023591 0.0000
  4     -0.1494188687   0.000103877053 0.00030402  0.00004114  0.0002626 0.0000
  5     -0.1494084831   0.000010385556 0.00009547  0.00001395  0.0000179 0.0000
  6     -0.1494084992  -0.000000016120 0.00001259  0.00000186  0.0000020 0.0000
                            ***DIIS convergence achieved***

               *****************************************************
               *                     SUCCESS                       *
               *           SCF CONVERGED AFTER   7 CYCLES          *
               *****************************************************


----------------
TOTAL SCF ENERGY
----------------

Total Energy       :           -0.14940860 Eh              -4.06561 eV

Components:
Nuclear Repulsion  :            0.00000000 Eh               0.00000 eV
Electronic Energy  :           -0.14940860 Eh              -4.06561 eV
One Electron Energy:           -0.47046199 Eh             -12.80192 eV
Two Electron Energy:            0.32105340 Eh               8.73631 eV

Virial components:
Potential Energy   :           -1.25744327 Eh             -34.21677 eV
Kinetic Energy     :            1.10803468 Eh              30.15116 eV
Virial Ratio       :            1.13484108


---------------
SCF CONVERGENCE
---------------

  Last Energy change         ...   -9.5904e-08  Tolerance :   1.0000e-08
  Last MAX-Density change    ...    2.6323e-07  Tolerance :   1.0000e-07
  Last RMS-Density change    ...    3.9001e-08  Tolerance :   5.0000e-09
  Last DIIS Error            ...    4.0403e-08  Tolerance :   5.0000e-07

             **** THE GBW FILE WAS UPDATED (h.in.gbw) ****
             **** DENSITY h.in.scfp WAS UPDATED ****
             **** ENERGY FILE WAS UPDATED (h.in.en.tmp) ****
----------------------
UHF SPIN CONTAMINATION
----------------------

Expectation value of <S**2>     :     2.000000
Ideal value S*(S+1) for S=1.0   :     2.000000
Deviation                       :     0.000000

             **** THE GBW FILE WAS UPDATED (h.in.gbw) ****
             **** DENSITY h.in.scfp WAS UPDATED ****
----------------
ORBITAL ENERGIES
----------------
                 SPIN UP ORBITALS
  NO   OCC          E(Eh)            E(eV) 
   0   1.0000      -0.178522        -4.8578 
   1   1.0000       0.350167         9.5285 
   2   0.0000       1.985483        54.0277 
   3   0.0000       1.985483        54.0277 
   4   0.0000       1.985483        54.0277 
   5   0.0000       2.850938        77.5780 

                 SPIN DOWN ORBITALS
  NO   OCC          E(Eh)            E(eV) 
   0   0.0000       0.389641        10.6027 
   1   0.0000       0.869535        23.6613 
   2   0.0000       2.151074        58.5337 
   3   0.0000       2.151074        58.5337 
   4   0.0000       2.151074        58.5337 
   5   0.0000       3.069410        83.5229 

                    ********************************
                    * MULLIKEN POPULATION ANALYSIS *
                    ********************************

      **** WARNING: MULLIKEN FINDS    2.0000000 ELECTRONS INSTEAD OF 1 ****
--------------------------------------------
MULLIKEN ATOMIC CHARGES AND SPIN POPULATIONS
--------------------------------------------
   0 H :   -1.000000    2.000000
Sum of atomic charges         :   -1.0000000
Sum of atomic spin populations:    2.0000000

-----------------------------------------------------
MULLIKEN REDUCED ORBITAL CHARGES AND SPIN POPULATIONS
-----------------------------------------------------
CHARGE
  0 H s       :     2.000000  s :     2.000000
      pz      :     0.000000  p :     0.000000
      px      :     0.000000
      py      :     0.000000

SPIN
  0 H s       :     2.000000  s :     2.000000
      pz      :     0.000000  p :     0.000000
      px      :     0.000000
      py      :     0.000000


                     *******************************
                     * LOEWDIN POPULATION ANALYSIS *
                     *******************************

      **** WARNING: LOEWDIN FINDS    2.0000000 ELECTRONS INSTEAD OF 1 ****
-------------------------------------------
LOEWDIN ATOMIC CHARGES AND SPIN POPULATIONS
-------------------------------------------
   0 H :   -1.000000    2.000000

----------------------------------------------------
LOEWDIN REDUCED ORBITAL CHARGES AND SPIN POPULATIONS
----------------------------------------------------
CHARGE
  0 H s       :     2.000000  s :     2.000000
      pz      :     0.000000  p :     0.000000
      px      :     0.000000
      py      :     0.000000

SPIN
  0 H s       :     2.000000  s :     2.000000
      pz      :     0.000000  p :     0.000000
      px      :     0.000000
      py      :     0.000000


                      *****************************
                      * MAYER POPULATION ANALYSIS *
                      *****************************

  NA   - Mulliken gross atomic population
  ZA   - Total nuclear charge
  QA   - Mulliken gross atomic charge
  VA   - Mayer's total valence
  BVA  - Mayer's bonded valence
  FA   - Mayer's free valence

  ATOM       NA         ZA         QA         VA         BVA        FA
  0 H      2.0000     1.0000    -1.0000     2.0000     0.0000     2.0000

  Mayer bond orders larger than 0.100000


Local spin analysis not attempted because no beta electrons available

                ***UHF Natural Orbitals were saved in h.in.unso***


                ***UHF Natural Orbitals were saved in h.in.uno***

QR-MO GENERATION
 Dim     =    6
 Mult    =    3
 NEl     =    1
 N(DOMO) =    0
 N(SOMO) =    2
 N(VMO)  =    4


                ***Quasi-Restricted Orbitals were saved in h.in.qro***

Orbital Energies of Quasi-Restricted MO's
   0( 1) :     0.146471 a.u.     3.986 eV alpha=   -3.815 beta=   11.786
   1( 1) :     0.579332 a.u.    15.764 eV alpha=    8.486 beta=   23.043
   2( 0) :     1.985483 a.u.    54.028 eV
   3( 0) :     1.985483 a.u.    54.028 eV
   4( 0) :     1.985483 a.u.    54.028 eV
   5( 0) :     2.850938 a.u.    77.578 eV
------------------------------------------------------------------------------
                           ORCA ORBITAL LOCALIZATION
------------------------------------------------------------------------------

Input orbitals are from                  ... h.in.uno
Output orbitals are to                   ... h.in.unoloc
Max. number of iterations                ... 64
Localizations seeded randomly            ... on
Convergence tolerance                    ... 1.000e-05
Using relative localization threshhold   ... 1.000e-05
Treshold for strong local MOs            ... 0.000e+00
Treshold for bond MOs                    ... 1.000e-01
Operator                                 ... 0
Orbital range for localization           ... 0 to 1
Localization criterion                   ... PIPEK-MEZEY
Entering Jacobi type localization:
Using Cholesky decomposition as initial guess.
Initial value of the localization sum :     2.000000
ITERATION   0 : L=    2.0000000000 DL=  0.00e+00 (MAX-T)=   0.000 
ITERATION   1 : L=    2.0000000000 DL=  0.00e+00 (MAX-T)=   0.000 
ITERATION   2 : L=    2.0000000000 DL=  0.00e+00 (MAX-T)=   0.000 
LOCALIZATION SUM CONVERGED


--------------------------------------------------------------------------------
                    LOCALIZED MOLECULAR ORBITAL COMPOSITIONS
--------------------------------------------------------------------------------

The Mulliken populations for each LMO on each atom are computed
The LMO`s will be ordered according to atom index and type
  (A) Strongly localized MO`s have populations of >=0.000 on one atom
  (B) Two center bond orbitals have populations of >=0.100 on two atoms
  (C) Other MO`s are considered to be `delocalized`

FOUND  -   2 strongly local MO`s
       -   0 two center bond MO`s
       -   0 significantly delocalized MO`s

Rather strongly localized orbitals:
MO   1:   0H  -   1.000000
MO   0:   0H  -   1.000000
Localized MO's were stored in: h.in.unoloc

----------------------------
 BROKEN SYMMETRY INFORMATION
----------------------------

first open orbital = 0
last open orbital  = 1
HOMO(alpha)        = 0
HOMO(beta)         = 0
The new occupation numbers
   0:    1.000    1.000
   1:    0.000    0.000
   2:    0.000    0.000
   3:    0.000    0.000
   4:    0.000    0.000
   5:    0.000    0.000

--------------
SCF ITERATIONS
--------------
ITER       Energy         Delta-E        Max-DP      RMS-DP      [F,P]     Damp
               ***  Starting incremental Fock matrix formation  ***
  0     -0.1184605483   0.000000000000 0.21342908  0.03545465  0.0762428 0.7000
  1     -0.1663400314  -0.047879483028 0.24839637  0.04238943  0.0786707 0.7000
                               ***Turning on DIIS***
  2     -0.2151171894  -0.048777158080 0.78586225  0.13303901  0.0737465 0.0000
  3     -0.4227271962  -0.207610006733 0.66578342  0.09827226  0.0504721 0.0000
  4     -0.4501674628  -0.027440266608 0.12324650  0.01746684  0.0059378 0.0000
  5     -0.4543630624  -0.004195599642 0.11665135  0.01714568  0.0024649 0.0000
  6     -0.4616045423  -0.007241479875 0.09242336  0.01419883  0.0006786 0.0000
  7     -0.4647863894  -0.003181847108 0.04856477  0.00776133  0.0004298 0.0000
  8     -0.4656884539  -0.000902064528 0.04250189  0.00692717  0.0001889 0.0000
  9     -0.4663134732  -0.000625019306 0.01827485  0.00302995  0.0000391 0.0000
 10     -0.4664435400  -0.000130066775 0.01066656  0.00178197  0.0000138 0.0000
 11     -0.4664802888  -0.000036748761 0.00561099  0.00094229  0.0000036 0.0000
 12     -0.4664918472  -0.000011558403 0.00358056  0.00060295  0.0000015 0.0000
                            ***DIIS convergence achieved***

               *****************************************************
               *                     SUCCESS                       *
               *           SCF CONVERGED AFTER  13 CYCLES          *
               *****************************************************


----------------
TOTAL SCF ENERGY
----------------

Total Energy       :           -0.46649582 Eh             -12.69400 eV

Components:
Nuclear Repulsion  :            0.00000000 Eh               0.00000 eV
Electronic Energy  :           -0.46649582 Eh             -12.69400 eV
One Electron Energy:           -0.92608717 Eh             -25.20011 eV
Two Electron Energy:            0.45959136 Eh              12.50612 eV

Virial components:
Potential Energy   :           -1.04115272 Eh             -28.33121 eV
Kinetic Energy     :            0.57465691 Eh              15.63721 eV
Virial Ratio       :            1.81178145


---------------
SCF CONVERGENCE
---------------

  Last Energy change         ...   -3.9695e-06  Tolerance :   1.0000e-08
  Last MAX-Density change    ...    1.9699e-03  Tolerance :   1.0000e-07
  Last RMS-Density change    ...    3.3234e-04  Tolerance :   5.0000e-09
  Last DIIS Error            ...    4.0841e-07  Tolerance :   5.0000e-07

             **** THE GBW FILE WAS UPDATED (h.in.gbw) ****
             **** DENSITY h.in.scfp WAS UPDATED ****
             **** ENERGY FILE WAS UPDATED (h.in.en.tmp) ****
----------------------
UHF SPIN CONTAMINATION
----------------------

Expectation value of <S**2>     :     0.000008
Ideal value S*(S+1) for S=0.0   :     0.000000
Deviation                       :     0.000008

             **** THE GBW FILE WAS UPDATED (h.in.gbw) ****
             **** DENSITY h.in.scfp WAS UPDATED ****
----------------
ORBITAL ENERGIES
----------------
                 SPIN UP ORBITALS
  NO   OCC          E(Eh)            E(eV) 
   0   1.0000      -0.002934        -0.0799 
   1   0.0000       0.742030        20.1917 
   2   0.0000       2.087744        56.8104 
   3   0.0000       2.087744        56.8104 
   4   0.0000       2.087744        56.8104 
   5   0.0000       2.981050        81.1185 

                 SPIN DOWN ORBITALS
  NO   OCC          E(Eh)            E(eV) 
   0   1.0000      -0.003975        -0.1082 
   1   0.0000       0.741037        20.1646 
   2   0.0000       2.087131        56.7937 
   3   0.0000       2.087131        56.7937 
   4   0.0000       2.087131        56.7937 
   5   0.0000       2.980281        81.0976 

                    ********************************
                    * MULLIKEN POPULATION ANALYSIS *
                    ********************************

      **** WARNING: MULLIKEN FINDS    2.0000000 ELECTRONS INSTEAD OF 1 ****
--------------------------------------------
MULLIKEN ATOMIC CHARGES AND SPIN POPULATIONS
--------------------------------------------
   0 H :   -1.000000    0.000000
Sum of atomic charges         :   -1.0000000
Sum of atomic spin populations:    0.0000000

-----------------------------------------------------
MULLIKEN REDUCED ORBITAL CHARGES AND SPIN POPULATIONS
-----------------------------------------------------
CHARGE
  0 H s       :     2.000000  s :     2.000000
      pz      :     0.000000  p :     0.000000
      px      :     0.000000
      py      :     0.000000

SPIN
  0 H s       :     0.000000  s :     0.000000
      pz      :    -0.000000  p :    -0.000000
      px      :     0.000000
      py      :     0.000000


                     *******************************
                     * LOEWDIN POPULATION ANALYSIS *
                     *******************************

      **** WARNING: LOEWDIN FINDS    2.0000000 ELECTRONS INSTEAD OF 1 ****
-------------------------------------------
LOEWDIN ATOMIC CHARGES AND SPIN POPULATIONS
-------------------------------------------
   0 H :   -1.000000    0.000000

----------------------------------------------------
LOEWDIN REDUCED ORBITAL CHARGES AND SPIN POPULATIONS
----------------------------------------------------
CHARGE
  0 H s       :     2.000000  s :     2.000000
      pz      :     0.000000  p :     0.000000
      px      :     0.000000
      py      :     0.000000

SPIN
  0 H s       :     0.000000  s :     0.000000
      pz      :    -0.000000  p :    -0.000000
      px      :     0.000000
      py      :     0.000000


                      *****************************
                      * MAYER POPULATION ANALYSIS *
                      *****************************

  NA   - Mulliken gross atomic population
  ZA   - Total nuclear charge
  QA   - Mulliken gross atomic charge
  VA   - Mayer's total valence
  BVA  - Mayer's bonded valence
  FA   - Mayer's free valence

  ATOM       NA         ZA         QA         VA         BVA        FA
  0 H      2.0000     1.0000    -1.0000     0.0000     0.0000     0.0000

  Mayer bond orders larger than 0.100000



Warning: MO coefficients are modified such that the real solid harmonic m components
have the correct order within each shell (0, +1, -1, +2, -2, ...) and all s orbitals
come before all p orbitals etc. (with increasing orbital energy within each block of given angular momentum).

--------------------------
ATOM BASIS FOR ELEMENT H 
--------------------------
 NewGTO H 
 S 5
    1         34.061341000000         0.004424795542
    2          5.123574600000         0.033062671571
    3          1.164662600000         0.148269671066
    4          0.327230410000         0.172578681628
    5          0.103072410000         0.767462388792
 S 5
    1         34.061341000000         0.002154491811
    2          5.123574600000         0.016098654609
    3          1.164662600000         0.072194475223
    4          0.327230410000         1.488219366540
    5          0.103072410000        -1.434917974129
 S 5
    1         34.061341000000         0.039324815250
    2          5.123574600000         0.293840345610
    3          1.164662600000         1.317728099992
    4          0.327230410000        -1.811302159716
    5          0.103072410000         0.755042865773
 P 1
    1          0.800000000000         1.000000000000
 end
-------------------------------------------
RADIAL EXPECTATION VALUES <R**-3> TO <R**3>
-------------------------------------------
   0 :     0.000000     1.198531     0.749071     2.017763     5.248987    16.209094
   1 :     0.000000     1.300162     0.741270     2.486905     8.386649    32.229572
   2 :     0.000000     9.480755     1.997730     1.189343     2.667283     8.439034
   3 :     1.522453     1.066667     0.951533     1.189416     1.562500     2.230155
   4 :     1.522453     1.066667     0.951533     1.189416     1.562500     2.230155
   5 :     1.522453     1.066667     0.951533     1.189416     1.562500     2.230155
-------
TIMINGS
-------

Total SCF time: 0 days 0 hours 0 min 5 sec 

Total time                  ....       5.399 sec
Sum of individual times     ....       5.071 sec  ( 93.9%)

Fock matrix formation       ....       3.872 sec  ( 71.7%)
Diagonalization             ....       0.004 sec  (  0.1%)
Density matrix formation    ....       0.000 sec  (  0.0%)
Population analysis         ....       0.429 sec  (  7.9%)
Initial guess               ....       0.243 sec  (  4.5%)
Orbital Transformation      ....       0.000 sec  (  0.0%)
Orbital Orthonormalization  ....       0.000 sec  (  0.0%)
DIIS solution               ....       0.464 sec  (  8.6%)
--------------------------
UHF CORRESPONDING ORBITALS
--------------------------
Transforming orbitals                         ... done
Choosing virtual orbitals in the orth. comp.  ... done

                ***UHF Corresponding Orbitals were saved in h.in.uco***


Now the overlap between the corresponding orbitals will be plotted
Since there are an equal number of alpha and beta orbitals each orbital in the
alpha set is matched by an orbital in the beta set. If all overlaps are close to
one you have a normal UHF solution with some spin polarization
If you have a broken symmetry solution there will be overlaps that are
significantly smaller than one. These orbitals are the non-orthogonal magnetic
orbitals of the broken symmetry UHF solution.

----------------------
 Orbital    Overlap(*)
----------------------
   0:      1.00000
(*)  the overlap is weighted by the product of occupation numbers
     NOTE: the whole analysis is not valid for fractional occupations

------------------------------------------
BROKEN SYMMETRY MAGNETIC COUPLING ANALYSIS
------------------------------------------

S(High-Spin)      =   1.0    
<S**2>(High-Spin) =   2.0000    
<S**2>(BrokenSym) =   0.0000    
E(High-Spin)      =    -0.149409 Eh
E(BrokenSym)      =    -0.466496 Eh
E(High-Spin)-E(BrokenSym)= 8.6282 eV  69586.153 cm**-1 (ANTIFERROMAGNETIC coupling)

          ---------------------------------------------------------
          | Spin-Hamiltonian Analysis based on H(HDvV)= -2J*SA*SB |
    -------                                                       -----------
    | J(1) =  -69586.15 cm**-1    (from -(E[HS]-E[BS])/Smax**2)             |
    | J(2) =  -34793.08 cm**-1    (from -(E[HS]-E[BS])/(Smax*(Smax+1))      |
    | J(3) =  -34793.21 cm**-1    (from -(E[HS]-E[BS])/(<S**2>HS-<S**2>BS)) |
    -------------------------------------------------------------------------

  J(1): (a) A.P. Ginsberg J. Am. Chem. Soc. 102 (1980), 111
        (b) L. Noodleman J. Chem. Phys. 74 (1981), 5737
        (c) L. Noodleman E.R. Davidson Chem. Phys. 109 (1986), 131
  J(2)  (d) A. Bencini D. Gatteschi J. Am. Chem. Soc. 108 (1980), 5763
  J(3)  (e) K. Yamaguchi Y. Takahara T. Fueno in: V.H. Smith (Ed.)
            Applied Quantum Chemistry. Reidel, Dordrecht (1986), pp 155
        (f) T.Soda et al. Chem. Phys. Lett., 319, (2000), 223


Warning: MO coefficients are modified such that the real solid harmonic m components
have the correct order within each shell (0, +1, -1, +2, -2, ...) and all s orbitals
come before all p orbitals etc. (with increasing orbital energy within each block of given angular momentum).

CleanUpVectors: The p-vectors have cracked symmetry
--------------------------
ATOM BASIS FOR ELEMENT H 
--------------------------
 NewGTO H 
 S 5
    1         34.061341000000         0.004424795542
    2          5.123574600000         0.033062671571
    3          1.164662600000         0.148269671066
    4          0.327230410000         0.172578681628
    5          0.103072410000         0.767462388792
 S 5
    1         34.061341000000         0.002154491811
    2          5.123574600000         0.016098654609
    3          1.164662600000         0.072194475223
    4          0.327230410000         1.488219366540
    5          0.103072410000        -1.434917974129
 S 5
    1         34.061341000000         0.039324815250
    2          5.123574600000         0.293840345610
    3          1.164662600000         1.317728099992
    4          0.327230410000        -1.811302159716
    5          0.103072410000         0.755042865773
 P 1
    1          0.800000000000         1.000000000000
 end
-------------------------------------------
RADIAL EXPECTATION VALUES <R**-3> TO <R**3>
-------------------------------------------
   0 :     0.000000     1.198531     0.749071     2.017763     5.248987    16.209094
   1 :     0.000000     1.300162     0.741270     2.486905     8.386649    32.229572
   2 :     0.000000     9.480755     1.997730     1.189343     2.667283     8.439034
   3 :     1.522453     1.066667     0.951533     1.189416     1.562500     2.230155
   4 :     1.522453     1.066667     0.951533     1.189416     1.562500     2.230155
   5 :     1.522453     1.066667     0.951533     1.189416     1.562500     2.230155
-------
TIMINGS
-------

Total SCF time: 0 days 0 hours 0 min 9 sec 

Total time                  ....       9.346 sec
Sum of individual times     ....       6.403 sec  ( 68.5%)

Fock matrix formation       ....       0.000 sec  (  0.0%)
Diagonalization             ....       0.000 sec  (  0.0%)
Density matrix formation    ....       0.000 sec  (  0.0%)
Population analysis         ....       6.403 sec  ( 68.5%)
Initial guess               ....       0.000 sec  (  0.0%)
Orbital Transformation      ....       0.000 sec  (  0.0%)
Orbital Orthonormalization  ....       0.000 sec  (  0.0%)
DIIS solution               ....       0.000 sec  (  0.0%)

Maximum memory used throughout the entire SCF-calculation: 223.4 MB

-------------------------   --------------------
FINAL SINGLE POINT ENERGY        -0.466495816660
-------------------------   --------------------


                            ***************************************
                            *     ORCA property calculations      *
                            ***************************************

                                    ---------------------
                                    Active property flags
                                    ---------------------
   (+) Dipole Moment


------------------------------------------------------------------------------
                       ORCA ELECTRIC PROPERTIES CALCULATION
------------------------------------------------------------------------------

Dipole Moment Calculation                       ... on
Quadrupole Moment Calculation                   ... off
Polarizability Calculation                      ... off
GBWName                                         ... h.in.gbw
Electron density                                ... h.in.scfp
The origin for moment calculation is the CENTER OF MASS  = ( 0.000000,  0.000000  0.000000)

-------------
DIPOLE MOMENT
-------------
                                X             Y             Z
Electronic contribution:      0.00000       0.00000       0.00000
Nuclear contribution   :      0.00000       0.00000       0.00000
                        -----------------------------------------
Total Dipole Moment    :      0.00000       0.00000       0.00000
                        -----------------------------------------
Magnitude (a.u.)       :      0.00000
Magnitude (Debye)      :      0.00000



--------------------
Rotational spectrum 
--------------------
 
Rotational constants in cm-1:     0.000000     0.000000     0.000000 
Rotational constants in MHz :     0.000000     0.000000     0.000000 

 Dipole components along the rotational axes: 
x,y,z [a.u.] :     0.000000     0.000000     0.000000 
x,y,z [Debye]:     0.000000     0.000000     0.000000 

 

Timings for individual modules:

Sum of individual times         ...       10.769 sec (=   0.179 min)
GTO integral calculation        ...        0.644 sec (=   0.011 min)   6.0 %
SCF iterations                  ...       10.125 sec (=   0.169 min)  94.0 %
                             ****ORCA TERMINATED NORMALLY****
TOTAL RUN TIME: 0 days 0 hours 0 minutes 11 seconds 881 msec
