
                                 *****************
                                 * O   R   C   A *
                                 *****************

                                            #,                                       
                                            ###                                      
                                            ####                                     
                                            #####                                    
                                            ######                                   
                                           ########,                                 
                                     ,,################,,,,,                         
                               ,,#################################,,                 
                          ,,##########################################,,             
                       ,#########################################, ''#####,          
                    ,#############################################,,   '####,        
                  ,##################################################,,,,####,       
                ,###########''''           ''''###############################       
              ,#####''   ,,,,##########,,,,          '''####'''          '####       
            ,##' ,,,,###########################,,,                        '##       
           ' ,,###''''                  '''############,,,                           
         ,,##''                                '''############,,,,        ,,,,,,###''
      ,#''                                            '''#######################'''  
     '                                                          ''''####''''         
             ,#######,   #######,   ,#######,      ##                                
            ,#'     '#,  ##    ##  ,#'     '#,    #''#        ######   ,####,        
            ##       ##  ##   ,#'  ##            #'  '#       #        #'  '#        
            ##       ##  #######   ##           ,######,      #####,   #    #        
            '#,     ,#'  ##    ##  '#,     ,#' ,#      #,         ##   #,  ,#        
             '#######'   ##     ##  '#######'  #'      '#     #####' # '####'        



                  #######################################################
                  #                        -***-                        #
                  #          Department of theory and spectroscopy      #
                  #    Directorship and core code : Frank Neese         #
                  #        Max Planck Institute fuer Kohlenforschung    #
                  #                Kaiser Wilhelm Platz 1               #
                  #                 D-45470 Muelheim/Ruhr               #
                  #                      Germany                        #
                  #                                                     #
                  #                  All rights reserved                #
                  #                        -***-                        #
                  #######################################################


                         Program Version 5.0.2 -  RELEASE  -


 With contributions from (in alphabetic order):
   Daniel Aravena         : Magnetic Suceptibility
   Michael Atanasov       : Ab Initio Ligand Field Theory (pilot matlab implementation)
   Alexander A. Auer      : GIAO ZORA, VPT2 properties, NMR spectrum
   Ute Becker             : Parallelization
   Giovanni Bistoni       : ED, misc. LED, open-shell LED, HFLD
   Martin Brehm           : Molecular dynamics
   Dmytro Bykov           : SCF Hessian
   Vijay G. Chilkuri      : MRCI spin determinant printing, contributions to CSF-ICE
   Dipayan Datta          : RHF DLPNO-CCSD density
   Achintya Kumar Dutta   : EOM-CC, STEOM-CC
   Dmitry Ganyushin       : Spin-Orbit,Spin-Spin,Magnetic field MRCI
   Miquel Garcia          : C-PCM and meta-GGA Hessian, CC/C-PCM, Gaussian charge scheme
   Yang Guo               : DLPNO-NEVPT2, F12-NEVPT2, CIM, IAO-localization
   Andreas Hansen         : Spin unrestricted coupled pair/coupled cluster methods
   Benjamin Helmich-Paris : MC-RPA, TRAH-SCF, COSX integrals
   Lee Huntington         : MR-EOM, pCC
   Robert Izsak           : Overlap fitted RIJCOSX, COSX-SCS-MP3, EOM
   Marcus Kettner         : VPT2
   Christian Kollmar      : KDIIS, OOCD, Brueckner-CCSD(T), CCSD density, CASPT2, CASPT2-K
   Simone Kossmann        : Meta GGA functionals, TD-DFT gradient, OOMP2, MP2 Hessian
   Martin Krupicka        : Initial AUTO-CI
   Lucas Lang             : DCDCAS
   Marvin Lechner         : AUTO-CI (C++ implementation), FIC-MRCC
   Dagmar Lenk            : GEPOL surface, SMD
   Dimitrios Liakos       : Extrapolation schemes; Compound Job, initial MDCI parallelization
   Dimitrios Manganas     : Further ROCIS development; embedding schemes
   Dimitrios Pantazis     : SARC Basis sets
   Anastasios Papadopoulos: AUTO-CI, single reference methods and gradients
   Taras Petrenko         : DFT Hessian,TD-DFT gradient, ASA, ECA, R-Raman, ABS, FL, XAS/XES, NRVS
   Peter Pinski           : DLPNO-MP2, DLPNO-MP2 Gradient
   Christoph Reimann      : Effective Core Potentials
   Marius Retegan         : Local ZFS, SOC
   Christoph Riplinger    : Optimizer, TS searches, QM/MM, DLPNO-CCSD(T), (RO)-DLPNO pert. Triples
   Tobias Risthaus        : Range-separated hybrids, TD-DFT gradient, RPA, STAB
   Michael Roemelt        : Original ROCIS implementation
   Masaaki Saitow         : Open-shell DLPNO-CCSD energy and density
   Barbara Sandhoefer     : DKH picture change effects
   Avijit Sen             : IP-ROCIS
   Kantharuban Sivalingam : CASSCF convergence, NEVPT2, FIC-MRCI
   Bernardo de Souza      : ESD, SOC TD-DFT
   Georgi Stoychev        : AutoAux, RI-MP2 NMR, DLPNO-MP2 response
   Willem Van den Heuvel  : Paramagnetic NMR
   Boris Wezisla          : Elementary symmetry handling
   Frank Wennmohs         : Technical directorship


 We gratefully acknowledge several colleagues who have allowed us to
 interface, adapt or use parts of their codes:
   Stefan Grimme, W. Hujo, H. Kruse, P. Pracht,  : VdW corrections, initial TS optimization,
                  C. Bannwarth, S. Ehlert          DFT functionals, gCP, sTDA/sTD-DF
   Ed Valeev, F. Pavosevic, A. Kumar             : LibInt (2-el integral package), F12 methods
   Garnet Chan, S. Sharma, J. Yang, R. Olivares  : DMRG
   Ulf Ekstrom                                   : XCFun DFT Library
   Mihaly Kallay                                 : mrcc  (arbitrary order and MRCC methods)
   Jiri Pittner, Ondrej Demel                    : Mk-CCSD
   Frank Weinhold                                : gennbo (NPA and NBO analysis)
   Christopher J. Cramer and Donald G. Truhlar   : smd solvation model
   Lars Goerigk                                  : TD-DFT with DH, B97 family of functionals
   V. Asgeirsson, H. Jonsson                     : NEB implementation
   FAccTs GmbH                                   : IRC, NEB, NEB-TS, DLPNO-Multilevel, CI-OPT
                                                   MM, QMMM, 2- and 3-layer-ONIOM, Crystal-QMMM,
                                                   LR-CPCM, SF, NACMEs, symmetry and pop. for TD-DFT,
                                                   nearIR, NL-DFT gradient (VV10), updates on ESD,
                                                   ML-optimized integration grids
   S Lehtola, MJT Oliveira, MAL Marques          : LibXC Library
   Liviu Ungur et al                             : ANISO software


 Your calculation uses the libint2 library for the computation of 2-el integrals
 For citations please refer to: http://libint.valeyev.net

 Your ORCA version has been built with support for libXC version: 5.1.0
 For citations please refer to: https://tddft.org/programs/libxc/

 This ORCA versions uses:
   CBLAS   interface :  Fast vector & matrix operations
   LAPACKE interface :  Fast linear algebra routines
   SCALAPACK package :  Parallel linear algebra routines
   Shared memory     :  Shared parallel matrices
   BLAS/LAPACK       :  OpenBLAS 0.3.15  USE64BITINT DYNAMIC_ARCH NO_AFFINITY Haswell SINGLE_THREADED
        Core in use  :  Haswell
   Copyright (c) 2011-2014, The OpenBLAS Project




***************************************
The coordinates will be read from file: C.xyz
***************************************


Your calculation utilizes the geometrical counterpoise correction gCP
Please cite in your paper:
H.Kruse, S. Grimme J.Chem.Phys., 136, (2012), 154101 
   

Your calculation utilizes the atom-pairwise dispersion correction
with the Becke-Johnson damping scheme (D3BJ)
Cite in your paper:
S.Grimme, S.Ehrlich, L.Goerigk, J Comput Chem, (2011), 32, 1456–1465 
S.Grimme, J.Antony, S.Ehrlich and H.Krieg, J.Chem.Phys., 132, (2010), 154104 
   

Your calculation employs the composite approach PBEh-3c.
Please cite in your paper:
S. Grimme, J. G. Brandenburg, C. Bannwarth, A. Hansen J.Chem.Phys., 143, (2015), 054107 
   

================================================================================

----- Orbital basis set information -----
Your calculation utilizes the basis: def2-mSVP

----- AuxJ basis set information -----
Your calculation utilizes the auxiliary basis: def2/J
   F. Weigend, Phys. Chem. Chem. Phys. 8, 1057 (2006).

================================================================================
                                        WARNINGS
                       Please study these warnings very carefully!
================================================================================


WARNING: Geometry Optimization
  ===> : Switching off AutoStart
         For restart on a previous wavefunction, please use MOREAD

INFO   : the flag for use of the SHARK integral package has been found!

================================================================================
                                       INPUT FILE
================================================================================
NAME = OPT_C.inp
|  1> ! PBEh-3c Opt
|  2> 
|  3> *xyzfile 0 1 C.xyz
|  4> 
|  5>                          ****END OF INPUT****
================================================================================

                       *****************************
                       * Geometry Optimization Run *
                       *****************************

Geometry optimization settings:
Update method            Update   .... BFGS
Choice of coordinates    CoordSys .... Z-matrix Internals
Initial Hessian          InHess   .... Almoef's Model

Convergence Tolerances:
Energy Change            TolE     ....  5.0000e-06 Eh
Max. Gradient            TolMAXG  ....  3.0000e-04 Eh/bohr
RMS Gradient             TolRMSG  ....  1.0000e-04 Eh/bohr
Max. Displacement        TolMAXD  ....  4.0000e-03 bohr
RMS Displacement         TolRMSD  ....  2.0000e-03 bohr
Strict Convergence                ....  False
------------------------------------------------------------------------------
                        ORCA OPTIMIZATION COORDINATE SETUP
------------------------------------------------------------------------------

The optimization will be done in new redundant internal coordinates
Making redundant internal coordinates   ...  (new redundants) done
Evaluating the initial hessian          ...  (Almloef) done
Evaluating the coordinates              ...  done
Calculating the B-matrix                .... done
Calculating the G-matrix                .... done
Diagonalizing the G-matrix              .... done
The first mode is                       ....   18
The number of degrees of freedom        ....   30

    -----------------------------------------------------------------
                    Redundant Internal Coordinates


    -----------------------------------------------------------------
         Definition                    Initial Value    Approx d2E/dq
    -----------------------------------------------------------------
      1. B(C   1,C   0)                  1.3350         0.764560   
      2. B(C   2,C   1)                  1.5042         0.410768   
      3. B(C   3,C   2)                  1.5253         0.380057   
      4. B(H   4,C   0)                  1.0852         0.366517   
      5. B(H   5,C   0)                  1.0860         0.365453   
      6. B(H   6,C   1)                  1.0870         0.364105   
      7. B(H   7,C   2)                  1.1116         0.332618   
      8. B(H   8,C   2)                  1.1116         0.332620   
      9. B(H   9,C   3)                  1.1111         0.333219   
     10. B(H  10,C   3)                  1.1104         0.334087   
     11. B(H  11,C   3)                  1.1111         0.333213   
     12. A(C   1,C   0,H   4)          120.0481         0.366838   
     13. A(H   4,C   0,H   5)          119.0331         0.292326   
     14. A(C   1,C   0,H   5)          120.9189         0.366655   
     15. A(C   0,C   1,H   6)          118.8770         0.366423   
     16. A(C   0,C   1,C   2)          120.8515         0.418637   
     17. A(C   2,C   1,H   6)          120.2715         0.330031   
     18. A(H   7,C   2,H   8)          108.8947         0.283715   
     19. A(C   1,C   2,H   8)          109.3401         0.325147   
     20. A(C   3,C   2,H   7)          108.9783         0.321030   
     21. A(C   3,C   2,H   8)          108.9778         0.321030   
     22. A(C   1,C   2,H   7)          109.3406         0.325147   
     23. A(C   1,C   2,C   3)          111.2720         0.370402   
     24. A(H   9,C   3,H  10)          108.7040         0.283989   
     25. A(C   2,C   3,H  10)          109.5902         0.321262   
     26. A(C   2,C   3,H   9)          110.2829         0.321125   
     27. A(H  10,C   3,H  11)          108.7036         0.283988   
     28. A(H   9,C   3,H  11)          109.2403         0.283873   
     29. A(C   2,C   3,H  11)          110.2829         0.321124   
     30. D(C   2,C   1,C   0,H   4)   -179.9997         0.041845   
     31. D(H   6,C   1,C   0,H   4)      0.0008         0.041845   
     32. D(H   6,C   1,C   0,H   5)   -179.9996         0.041845   
     33. D(C   2,C   1,C   0,H   5)     -0.0001         0.041845   
     34. D(H   7,C   2,C   1,C   0)     59.5701         0.012495   
     35. D(C   3,C   2,C   1,H   6)      0.0011         0.012495   
     36. D(H   8,C   2,C   1,H   6)    120.4316         0.012495   
     37. D(H   8,C   2,C   1,C   0)    -59.5678         0.012495   
     38. D(H   7,C   2,C   1,H   6)   -120.4304         0.012495   
     39. D(C   3,C   2,C   1,C   0)   -179.9984         0.012495   
     40. D(H  10,C   3,C   2,C   1)    179.9994         0.011512   
     41. D(H   9,C   3,C   2,H   8)    178.9864         0.011512   
     42. D(H   9,C   3,C   2,H   7)     60.2752         0.011512   
     43. D(H  10,C   3,C   2,H   7)    -59.3557         0.011512   
     44. D(H   9,C   3,C   2,C   1)    -60.3697         0.011512   
     45. D(H  11,C   3,C   2,H   8)    -60.2749         0.011512   
     46. D(H  11,C   3,C   2,H   7)   -178.9861         0.011512   
     47. D(H  11,C   3,C   2,C   1)     60.3690         0.011512   
     48. D(H  10,C   3,C   2,H   8)     59.3555         0.011512   
    -----------------------------------------------------------------

Number of atoms                         .... 12
Number of degrees of freedom            .... 48

         *************************************************************
         *                GEOMETRY OPTIMIZATION CYCLE   1            *
         *************************************************************
---------------------------------
CARTESIAN COORDINATES (ANGSTROEM)
---------------------------------
  C     -4.428510   -3.403620    0.125770
  C     -3.642490   -2.400390   -0.271790
  C     -3.306940   -1.267790    0.659410
  C     -2.398140   -0.246240   -0.016690
  H     -4.662160   -4.214190   -0.556890
  H     -4.842600   -3.423990    1.129500
  H     -3.246020   -2.413500   -1.283810
  H     -2.792050   -1.670600    1.558470
  H     -4.244650   -0.762720    0.977650
  H     -1.444930   -0.725000   -0.327760
  H     -2.168550    0.575650    0.693800
  H     -2.900020    0.184430   -0.909570

----------------------------
CARTESIAN COORDINATES (A.U.)
----------------------------
  NO LB      ZA    FRAG     MASS         X           Y           Z
   0 C     6.0000    0    12.011   -8.368671   -6.431910    0.237671
   1 C     6.0000    0    12.011   -6.883309   -4.536080   -0.513609
   2 C     6.0000    0    12.011   -6.249211   -2.395776    1.246104
   3 C     6.0000    0    12.011   -4.531828   -0.465326   -0.031540
   4 H     1.0000    0     1.008   -8.810206   -7.963665   -1.052370
   5 H     1.0000    0     1.008   -9.151188   -6.470403    2.134446
   6 H     1.0000    0     1.008   -6.134089   -4.560854   -2.426049
   7 H     1.0000    0     1.008   -5.276210   -3.156976    2.945081
   8 H     1.0000    0     1.008   -8.021226   -1.441332    1.847491
   9 H     1.0000    0     1.008   -2.730522   -1.370051   -0.619377
  10 H     1.0000    0     1.008   -4.097966    1.087821    1.311092
  11 H     1.0000    0     1.008   -5.480244    0.348522   -1.718838

--------------------------------
INTERNAL COORDINATES (ANGSTROEM)
--------------------------------
 C      0   0   0     0.000000000000     0.00000000     0.00000000
 C      1   0   0     1.335047499867     0.00000000     0.00000000
 C      2   1   0     1.504164220589   120.85151478     0.00000000
 C      3   2   1     1.525317361240   111.27195669   180.00162073
 H      1   2   3     1.085191560509   120.04806391   180.00025979
 H      1   2   3     1.085983138865   120.91886358     0.00000000
 H      2   1   3     1.086988874552   118.87696111   180.00054943
 H      3   2   1     1.111609864926   109.34062822    59.57013240
 H      3   2   1     1.111608045401   109.34012997   300.43218262
 H      4   3   2     1.111118799499   110.28287227   299.63029749
 H      4   3   2     1.110410185607   109.59020214   179.99940948
 H      4   3   2     1.111123250454   110.28293757    60.36900743

---------------------------
INTERNAL COORDINATES (A.U.)
---------------------------
 C      0   0   0     0.000000000000     0.00000000     0.00000000
 C      1   0   0     2.522874150524     0.00000000     0.00000000
 C      2   1   0     2.842458437356   120.85151478     0.00000000
 C      3   2   1     2.882432080059   111.27195669   180.00162073
 H      1   2   3     2.050714852205   120.04806391   180.00025979
 H      1   2   3     2.052210718512   120.91886358     0.00000000
 H      2   1   3     2.054111283523   118.87696111   180.00054943
 H      3   2   1     2.100638212475   109.34062822    59.57013240
 H      3   2   1     2.100634774071   109.34012997   300.43218262
 H      4   3   2     2.099710233304   110.28287227   299.63029749
 H      4   3   2     2.098371147114   109.59020214   179.99940948
 H      4   3   2     2.099718644391   110.28293757    60.36900743

---------------------
BASIS SET INFORMATION
---------------------
There are 2 groups of distinct atoms

 Group   1 Type C   : 8s4p1d contracted to 4s2p1d pattern {5111/31/1}
 Group   2 Type H   : 4s contracted to 2s pattern {31}

Atom   0C    basis set group =>   1
Atom   1C    basis set group =>   1
Atom   2C    basis set group =>   1
Atom   3C    basis set group =>   1
Atom   4H    basis set group =>   2
Atom   5H    basis set group =>   2
Atom   6H    basis set group =>   2
Atom   7H    basis set group =>   2
Atom   8H    basis set group =>   2
Atom   9H    basis set group =>   2
Atom  10H    basis set group =>   2
Atom  11H    basis set group =>   2
---------------------------------
AUXILIARY/J BASIS SET INFORMATION
---------------------------------
There are 2 groups of distinct atoms

 Group   1 Type C   : 12s5p4d2f1g contracted to 6s4p3d1f1g pattern {711111/2111/211/2/1}
 Group   2 Type H   : 5s2p1d contracted to 3s1p1d pattern {311/2/1}

Atom   0C    basis set group =>   1
Atom   1C    basis set group =>   1
Atom   2C    basis set group =>   1
Atom   3C    basis set group =>   1
Atom   4H    basis set group =>   2
Atom   5H    basis set group =>   2
Atom   6H    basis set group =>   2
Atom   7H    basis set group =>   2
Atom   8H    basis set group =>   2
Atom   9H    basis set group =>   2
Atom  10H    basis set group =>   2
Atom  11H    basis set group =>   2
------------------------------------------------------------------------------
                           ORCA GTO INTEGRAL CALCULATION
                           -- RI-GTO INTEGRALS CHOSEN --
------------------------------------------------------------------------------
------------------------------------------------------------------------------
                   ___                                                        
                  /   \      - P O W E R E D   B Y -                         
                 /     \                                                     
                 |  |  |   _    _      __       _____    __    __             
                 |  |  |  | |  | |    /  \     |  _  \  |  |  /  |          
                  \  \/   | |  | |   /    \    | | | |  |  | /  /          
                 / \  \   | |__| |  /  /\  \   | |_| |  |  |/  /          
                |  |  |   |  __  | /  /__\  \  |    /   |      \           
                |  |  |   | |  | | |   __   |  |    \   |  |\   \          
                \     /   | |  | | |  |  |  |  | |\  \  |  | \   \       
                 \___/    |_|  |_| |__|  |__|  |_| \__\ |__|  \__/        
                                                                              
                      - O R C A' S   B I G   F R I E N D -                    
                                      &                                       
                       - I N T E G R A L  F E E D E R -                       
                                                                              
 v1 FN, 2020, v2 2021                                                         
------------------------------------------------------------------------------


Reading SHARK input file OPT_C.SHARKINP.tmp ... ok
----------------------
SHARK INTEGRAL PACKAGE
----------------------

Number of atoms                             ...     12
Number of basis functions                   ...     76
Number of shells                            ...     44
Maximum angular momentum                    ...      2
Integral batch strategy                     ... SHARK/LIBINT Hybrid
RI-J (if used) integral strategy            ... SPLIT-RIJ (Revised 2003 algorithm where possible)
Printlevel                                  ...      1
Contraction scheme used                     ... SEGMENTED contraction
Coulomb Range Separation                    ... NOT USED
Exchange Range Separation                   ... NOT USED
Finite Nucleus Model                        ... NOT USED
Auxiliary Coulomb fitting basis             ... AVAILABLE
   # of basis functions in Aux-J            ...    284
   # of shells in Aux-J                     ...    100
   Maximum angular momentum in Aux-J        ...      4
Auxiliary J/K fitting basis                 ... NOT available
Auxiliary Correlation fitting basis         ... NOT available
Auxiliary 'external' fitting basis          ... NOT available
Integral threshold                          ...     2.500000e-11
Primitive cut-off                           ...     2.500000e-12
Primitive pair pre-selection threshold      ...     2.500000e-12

Calculating pre-screening integrals         ... done (  0.1 sec) Dimension = 44
Organizing shell pair data                  ... done (  0.0 sec)
Shell pair information
Total number of shell pairs                 ...       990
Shell pairs after pre-screening             ...       955
Total number of primitive shell pairs       ...      3646
Primitive shell pairs kept                  ...      2707
          la=0 lb=0:    497 shell pairs
          la=1 lb=0:    256 shell pairs
          la=1 lb=1:     36 shell pairs
          la=2 lb=0:    124 shell pairs
          la=2 lb=1:     32 shell pairs
          la=2 lb=2:     10 shell pairs

Calculating one electron integrals          ... done (  0.0 sec)
Calculating RI/J V-Matrix + Cholesky decomp.... done (  0.0 sec)
Calculating Nuclear repulsion               ... done (  0.0 sec) ENN=    116.874515542827 Eh

SHARK setup successfully completed in   0.3 seconds

Maximum memory used throughout the entire GTOINT-calculation: 9.7 MB
-------------------------------------------------------------------------------
                                 ORCA SCF
-------------------------------------------------------------------------------

------------
SCF SETTINGS
------------
Hamiltonian:
 Density Functional     Method          .... DFT(GTOs)
 Exchange Functional    Exchange        .... PBE
   PBE kappa parameter   XKappa         ....  1.024500
   PBE mue parameter    XMuePBE         ....  0.123457
 Correlation Functional Correlation     .... PBE
   PBE beta parameter  CBetaPBE         ....  0.030000
 LDA part of GGA corr.  LDAOpt          .... PW91-LDA
 Gradients option       PostSCFGGA      .... off
 Hybrid DFT is turned on
   Fraction HF Exchange ScalHFX         ....  0.420000
   Scaling of DF-GGA-X  ScalDFX         ....  0.580000
   Scaling of DF-GGA-C  ScalDFC         ....  1.000000
   Scaling of DF-LDA-C  ScalLDAC        ....  1.000000
   Perturbative correction              ....  0.000000
   Density functional embedding theory  .... OFF
 RI-approximation to the Coulomb term is turned on
   Number of AuxJ basis functions       .... 284
   RIJ-ON(X) (HFX calculated with O(N)) .... on
   Number of AuxJ basis functions       .... 284
   RIJ-COSX (HFX calculated with COS-X)).... on


General Settings:
 Integral files         IntName         .... OPT_C
 Hartree-Fock type      HFTyp           .... RHF
 Total Charge           Charge          ....    0
 Multiplicity           Mult            ....    1
 Number of Electrons    NEL             ....   32
 Basis Dimension        Dim             ....   76
 Nuclear Repulsion      ENuc            ....    116.8745155428 Eh

Convergence Acceleration:
 DIIS                   CNVDIIS         .... on
   Start iteration      DIISMaxIt       ....    12
   Startup error        DIISStart       ....  0.200000
   # of expansion vecs  DIISMaxEq       ....     5
   Bias factor          DIISBfac        ....   1.050
   Max. coefficient     DIISMaxC        ....  10.000
 Trust-Rad. Augm. Hess. CNVTRAH         .... auto
   Auto Start mean grad. ratio tolernc. ....  1.125000
   Auto Start start iteration           ....    20
   Auto Start num. interpolation iter.  ....    10
   Max. Number of Micro iterations      ....    16
   Max. Number of Macro iterations      .... Maxiter - #DIIS iter
   Number of Davidson start vectors     ....     2
   Converg. threshold I  (grad. norm)   ....   1.000e-05
   Converg. threshold II (energy diff.) ....   1.000e-08
   Grad. Scal. Fac. for Micro threshold ....   0.100
   Minimum threshold for Micro iter.    ....   0.010
   NR start threshold (gradient norm)   ....   0.001
   Initial trust radius                 ....   0.400
   Minimum AH scaling param. (alpha)    ....   1.000
   Maximum AH scaling param. (alpha)    .... 1000.000
   Orbital update algorithm             .... Taylor
   White noise on init. David. guess    .... on
   Maximum white noise                  ....   0.010
   Quad. conv. algorithm                .... NR
   COSX micro iterations for RIJONX calc.... off
 SOSCF                  CNVSOSCF        .... on
   Start iteration      SOSCFMaxIt      ....   150
   Startup grad/error   SOSCFStart      ....  0.003300
 Level Shifting         CNVShift        .... on
   Level shift para.    LevelShift      ....    0.2500
   Turn off err/grad.   ShiftErr        ....    0.0010
 Zerner damping         CNVZerner       .... off
 Static damping         CNVDamp         .... on
   Fraction old density DampFac         ....    0.7000
   Max. Damping (<1)    DampMax         ....    0.9800
   Min. Damping (>=0)   DampMin         ....    0.0000
   Turn off err/grad.   DampErr         ....    0.1000
 Fernandez-Rico         CNVRico         .... off

SCF Procedure:
 Maximum # iterations   MaxIter         ....   125
 SCF integral mode      SCFMode         .... Direct
   Integral package                     .... SHARK and LIBINT hybrid scheme
 Reset frequency        DirectResetFreq ....    20
 Integral Threshold     Thresh          ....  2.500e-11 Eh
 Primitive CutOff       TCut            ....  2.500e-12 Eh

Convergence Tolerance:
 Convergence Check Mode ConvCheckMode   .... Total+1el-Energy
 Convergence forced     ConvForced      .... 0
 Energy Change          TolE            ....  1.000e-08 Eh
 1-El. energy change                    ....  1.000e-05 Eh
 Orbital Gradient       TolG            ....  1.000e-05
 Orbital Rotation angle TolX            ....  1.000e-05
 DIIS Error             TolErr          ....  5.000e-07


Diagonalization of the overlap matrix:
Smallest eigenvalue                        ... 4.317e-03
Time for diagonalization                   ...    0.011 sec
Threshold for overlap eigenvalues          ... 1.000e-08
Number of eigenvalues below threshold      ... 0
Time for construction of square roots      ...    0.000 sec
Total time needed                          ...    0.012 sec

--------------------------------
INITIAL GUESS: MINIMAL BASIS EHT
--------------------------------
The minimal basis has 28 functions
EHT matrix was diagonalized
Basis set overlap was calculated now projecting the orbitals
Using GuessMode=FMatrix for the initial guess
C*T matrix was formed
Effective Fockian was calculated
Effective Fockian was diagonalized
Initial density was built
                      ------------------
                      INITIAL GUESS DONE
                      ------------------
-------------------
DFT GRID GENERATION
-------------------

General Integration Accuracy     IntAcc      ... 4.159
Radial Grid Type                 RadialGrid  ... OptM3 with GC (2021)
Angular Grid (max. ang.)         AngularGrid ... 3 (Lebedev-194)
Angular grid pruning method      GridPruning ... 4 (adaptive)
Weight generation scheme         WeightScheme... Becke
Basis function cutoff            BFCut       ... 1.0000e-11
Integration weight cutoff        WCut        ... 1.0000e-14
Angular grids for H and He will be reduced by one unit
Partially contracted basis set               ... off
Rotationally invariant grid construction     ... off

Total number of grid points                  ...    24579
Total number of batches                      ...      390
Average number of points per batch           ...       63
Average number of grid points per atom       ...     2048
Time for grid setup =    0.268 sec

--------------------
COSX GRID GENERATION
--------------------

GRIDX 1
-------
General Integration Accuracy     IntAcc      ... 3.816
Radial Grid Type                 RadialGrid  ... OptM3 with GC (2021)
Angular Grid (max. ang.)         AngularGrid ... 1 (Lebedev-50)
Angular grid pruning method      GridPruning ... 4 (adaptive)
Weight generation scheme         WeightScheme... Becke
Basis function cutoff            BFCut       ... 1.0000e-11
Integration weight cutoff        WCut        ... 1.0000e-14
Angular grids for H and He will be reduced by one unit
Partially contracted basis set               ... on
Rotationally invariant grid construction     ... off

Total number of grid points                  ...     6483
Total number of batches                      ...      108
Average number of points per batch           ...       60
Average number of grid points per atom       ...      540
UseSFitting                                  ... on

GRIDX 2
-------
General Integration Accuracy     IntAcc      ... 4.020
Radial Grid Type                 RadialGrid  ... OptM3 with GC (2021)
Angular Grid (max. ang.)         AngularGrid ... 2 (Lebedev-110)
Angular grid pruning method      GridPruning ... 4 (adaptive)
Weight generation scheme         WeightScheme... Becke
Basis function cutoff            BFCut       ... 1.0000e-11
Integration weight cutoff        WCut        ... 1.0000e-14
Angular grids for H and He will be reduced by one unit
Partially contracted basis set               ... on
Rotationally invariant grid construction     ... off

Total number of grid points                  ...    13529
Total number of batches                      ...      218
Average number of points per batch           ...       62
Average number of grid points per atom       ...     1127
UseSFitting                                  ... on

GRIDX 3
-------
General Integration Accuracy     IntAcc      ... 4.338
Radial Grid Type                 RadialGrid  ... OptM3 with GC (2021)
Angular Grid (max. ang.)         AngularGrid ... 3 (Lebedev-194)
Angular grid pruning method      GridPruning ... 4 (adaptive)
Weight generation scheme         WeightScheme... Becke
Basis function cutoff            BFCut       ... 1.0000e-11
Integration weight cutoff        WCut        ... 1.0000e-14
Angular grids for H and He will be reduced by one unit
Partially contracted basis set               ... on
Rotationally invariant grid construction     ... off

Total number of grid points                  ...    29607
Total number of batches                      ...      470
Average number of points per batch           ...       62
Average number of grid points per atom       ...     2467
UseSFitting                                  ... on

Time for X-Grid setup             =    0.851 sec

--------------
SCF ITERATIONS
--------------
ITER       Energy         Delta-E        Max-DP      RMS-DP      [F,P]     Damp
               ***  Starting incremental Fock matrix formation  ***
  0   -156.5291498230   0.000000000000 0.04847527  0.00316302  0.4019690 0.7000
  1   -156.6277624916  -0.098612668601 0.03334527  0.00236574  0.2819049 0.7000
                               ***Turning on DIIS***
  2   -156.6984209531  -0.070658461502 0.02228000  0.00175356  0.1968172 0.7000
  3   -156.7487594251  -0.050338471986 0.01713831  0.00137666  0.1377295 0.7000
  4   -156.7845554287  -0.035796003552 0.04401438  0.00343851  0.0967704 0.0000
                      *** Initiating the SOSCF procedure ***
                           *** Shutting down DIIS ***
                      *** Re-Reading the Fockian *** 
                      *** Removing any level shift *** 
ITER      Energy       Delta-E        Grad      Rot      Max-DP    RMS-DP
  5   -156.87029903  -0.0857435980  0.002829  0.002829  0.003059  0.000148
               *** Restarting incremental Fock matrix formation ***
  6   -156.87026415   0.0000348786  0.000810  0.000980  0.001679  0.000090
  7   -156.87026939  -0.0000052393  0.000619  0.001016  0.001166  0.000045
  8   -156.87027245  -0.0000030600  0.000140  0.000235  0.000305  0.000016
  9   -156.87027267  -0.0000002181  0.000049  0.000045  0.000089  0.000005
 10   -156.87027269  -0.0000000263  0.000022  0.000030  0.000026  0.000002
 11   -156.87027270  -0.0000000070  0.000003  0.000004  0.000004  0.000000
                  ***Gradient check signals convergence***
              ***Rediagonalizing the Fockian in SOSCF/NRSCF***

               *****************************************************
               *                     SUCCESS                       *
               *           SCF CONVERGED AFTER  12 CYCLES          *
               *****************************************************

Old exchange energy                            =     -9.871270839 Eh
New exchange energy                            =     -9.871258988 Eh
Exchange energy change after final integration =      0.000011852 Eh
Total energy after final integration           =   -156.870260848 Eh
Final COS-X integration done in                =     3.388 sec

----------------
TOTAL SCF ENERGY
----------------

Total Energy       :         -156.87026085 Eh           -4268.65681 eV

Components:
Nuclear Repulsion  :          116.87451554 Eh            3180.31725 eV
Electronic Energy  :         -273.74477639 Eh           -7448.97406 eV
One Electron Energy:         -440.93358463 Eh          -11998.41283 eV
Two Electron Energy:          167.18880824 Eh            4549.43876 eV
Max COSX asymmetry :            0.00000527 Eh               0.00014 eV

Virial components:
Potential Energy   :         -312.29748131 Eh           -8498.04650 eV
Kinetic Energy     :          155.42722046 Eh            4229.38969 eV
Virial Ratio       :            2.00928435


DFT components:
N(Alpha)           :       15.999888313060 electrons
N(Beta)            :       15.999888313060 electrons
N(Total)           :       31.999776626120 electrons
E(X)               :      -13.081318034945 Eh       
E(C)               :       -1.337980255444 Eh       
E(XC)              :      -14.419298290389 Eh       
DFET-embed. en.    :        0.000000000000 Eh       

---------------
SCF CONVERGENCE
---------------

  Last Energy change         ...   -1.3135e-09  Tolerance :   1.0000e-08
  Last MAX-Density change    ...    9.9920e-16  Tolerance :   1.0000e-07
  Last RMS-Density change    ...    4.1217e-17  Tolerance :   5.0000e-09
  Last Orbital Gradient      ...    5.5724e-07  Tolerance :   1.0000e-05
  Last Orbital Rotation      ...    3.9001e-07  Tolerance :   1.0000e-05

             **** THE GBW FILE WAS UPDATED (OPT_C.gbw) ****
             **** DENSITY OPT_C.scfp WAS UPDATED ****
             **** ENERGY FILE WAS UPDATED (OPT_C.en.tmp) ****
             **** THE GBW FILE WAS UPDATED (OPT_C.gbw) ****
             **** DENSITY OPT_C.scfp WAS UPDATED ****
----------------
ORBITAL ENERGIES
----------------

  NO   OCC          E(Eh)            E(eV) 
   0   2.0000     -10.442010      -284.1415 
   1   2.0000     -10.440155      -284.0911 
   2   2.0000     -10.431295      -283.8500 
   3   2.0000     -10.428048      -283.7616 
   4   2.0000      -0.890003       -24.2182 
   5   2.0000      -0.811002       -22.0685 
   6   2.0000      -0.690622       -18.7928 
   7   2.0000      -0.621647       -16.9159 
   8   2.0000      -0.511964       -13.9312 
   9   2.0000      -0.506826       -13.7914 
  10   2.0000      -0.495110       -13.4726 
  11   2.0000      -0.428860       -11.6699 
  12   2.0000      -0.404993       -11.0204 
  13   2.0000      -0.400739       -10.9047 
  14   2.0000      -0.383222       -10.4280 
  15   2.0000      -0.293206        -7.9785 
  16   0.0000       0.041306         1.1240 
  17   0.0000       0.149956         4.0805 
  18   0.0000       0.171116         4.6563 
  19   0.0000       0.184325         5.0157 
  20   0.0000       0.205778         5.5995 
  21   0.0000       0.206401         5.6165 
  22   0.0000       0.224005         6.0955 
  23   0.0000       0.245795         6.6884 
  24   0.0000       0.250287         6.8106 
  25   0.0000       0.269862         7.3433 
  26   0.0000       0.331517         9.0210 
  27   0.0000       0.339961         9.2508 
  28   0.0000       0.496824        13.5193 
  29   0.0000       0.506609        13.7855 
  30   0.0000       0.538762        14.6604 
  31   0.0000       0.556561        15.1448 
  32   0.0000       0.587044        15.9743 
  33   0.0000       0.622813        16.9476 
  34   0.0000       0.657337        17.8871 
  35   0.0000       0.675305        18.3760 
  36   0.0000       0.698948        19.0193 
  37   0.0000       0.743885        20.2421 
  38   0.0000       0.791499        21.5378 
  39   0.0000       0.830042        22.5866 
  40   0.0000       0.948337        25.8056 
  41   0.0000       0.988685        26.9035 
  42   0.0000       1.011425        27.5223 
  43   0.0000       1.020401        27.7665 
  44   0.0000       1.038179        28.2503 
  45   0.0000       1.042361        28.3641 
  46   0.0000       1.054595        28.6970 
  47   0.0000       1.067769        29.0555 
  48   0.0000       1.176272        32.0080 
  49   0.0000       1.198914        32.6241 
  50   0.0000       1.236931        33.6586 
  51   0.0000       1.453809        39.5602 
  52   0.0000       1.501362        40.8541 
  53   0.0000       1.532136        41.6915 
  54   0.0000       1.672779        45.5186 
  55   0.0000       1.750228        47.6261 
  56   0.0000       1.893762        51.5319 
  57   0.0000       1.966359        53.5073 
  58   0.0000       1.986539        54.0565 
  59   0.0000       2.003254        54.5113 
  60   0.0000       2.066615        56.2355 
  61   0.0000       2.176061        59.2136 
  62   0.0000       2.233208        60.7687 
  63   0.0000       2.293144        62.3996 
  64   0.0000       2.294612        62.4396 
  65   0.0000       2.367103        64.4121 
  66   0.0000       2.389036        65.0090 
  67   0.0000       2.541136        69.1478 
  68   0.0000       2.567589        69.8676 
  69   0.0000       2.643042        71.9208 
  70   0.0000       2.845415        77.4277 
  71   0.0000       2.951011        80.3011 
  72   0.0000      13.407947       364.8488 
  73   0.0000      13.714284       373.1846 
  74   0.0000      13.947068       379.5190 
  75   0.0000      14.146949       384.9581 

                    ********************************
                    * MULLIKEN POPULATION ANALYSIS *
                    ********************************

-----------------------
MULLIKEN ATOMIC CHARGES
-----------------------
   0 C :   -0.477016
   1 C :   -0.151836
   2 C :   -0.454587
   3 C :   -0.644879
   4 H :    0.211129
   5 H :    0.208844
   6 H :    0.216570
   7 H :    0.226646
   8 H :    0.226673
   9 H :    0.211275
  10 H :    0.215893
  11 H :    0.211289
Sum of atomic charges:    0.0000000

--------------------------------
MULLIKEN REDUCED ORBITAL CHARGES
--------------------------------
  0 C s       :     3.327080  s :     3.327080
      pz      :     1.078844  p :     3.117465
      px      :     1.015673
      py      :     1.022949
      dz2     :     0.007238  d :     0.032471
      dxz     :     0.005485
      dyz     :     0.008839
      dx2y2   :     0.006449
      dxy     :     0.004460
  1 C s       :     3.230412  s :     3.230412
      pz      :     1.008028  p :     2.881659
      px      :     0.962568
      py      :     0.911063
      dz2     :     0.010080  d :     0.039765
      dxz     :     0.006514
      dyz     :     0.008626
      dx2y2   :     0.008056
      dxy     :     0.006489
  2 C s       :     3.337566  s :     3.337566
      pz      :     1.029883  p :     3.073263
      px      :     1.072041
      py      :     0.971340
      dz2     :     0.006410  d :     0.043759
      dxz     :     0.008784
      dyz     :     0.011137
      dx2y2   :     0.006958
      dxy     :     0.010470
  3 C s       :     3.387968  s :     3.387968
      pz      :     1.096255  p :     3.220153
      px      :     1.064330
      py      :     1.059568
      dz2     :     0.004570  d :     0.036757
      dxz     :     0.007200
      dyz     :     0.011079
      dx2y2   :     0.005735
      dxy     :     0.008172
  4 H s       :     0.788871  s :     0.788871
  5 H s       :     0.791156  s :     0.791156
  6 H s       :     0.783430  s :     0.783430
  7 H s       :     0.773354  s :     0.773354
  8 H s       :     0.773327  s :     0.773327
  9 H s       :     0.788725  s :     0.788725
 10 H s       :     0.784107  s :     0.784107
 11 H s       :     0.788711  s :     0.788711


                     *******************************
                     * LOEWDIN POPULATION ANALYSIS *
                     *******************************

----------------------
LOEWDIN ATOMIC CHARGES
----------------------
   0 C :   -0.273293
   1 C :   -0.149586
   2 C :   -0.250725
   3 C :   -0.359967
   4 H :    0.130394
   5 H :    0.128344
   6 H :    0.130414
   7 H :    0.134069
   8 H :    0.134071
   9 H :    0.125190
  10 H :    0.125906
  11 H :    0.125182

-------------------------------
LOEWDIN REDUCED ORBITAL CHARGES
-------------------------------
  0 C s       :     2.965875  s :     2.965875
      pz      :     1.090805  p :     3.241236
      px      :     1.060820
      py      :     1.089611
      dz2     :     0.014502  d :     0.066182
      dxz     :     0.011299
      dyz     :     0.017831
      dx2y2   :     0.011855
      dxy     :     0.010694
  1 C s       :     2.920511  s :     2.920511
      pz      :     1.070066  p :     3.140740
      px      :     1.014763
      py      :     1.055911
      dz2     :     0.020624  d :     0.088334
      dxz     :     0.013970
      dyz     :     0.021049
      dx2y2   :     0.016700
      dxy     :     0.015992
  2 C s       :     2.911958  s :     2.911958
      pz      :     1.094359  p :     3.250031
      px      :     1.093378
      py      :     1.062295
      dz2     :     0.012684  d :     0.088736
      dxz     :     0.016929
      dyz     :     0.024188
      dx2y2   :     0.013750
      dxy     :     0.021185
  3 C s       :     2.963308  s :     2.963308
      pz      :     1.119677  p :     3.328432
      px      :     1.107900
      py      :     1.100856
      dz2     :     0.008258  d :     0.068227
      dxz     :     0.013098
      dyz     :     0.020089
      dx2y2   :     0.011007
      dxy     :     0.015775
  4 H s       :     0.869606  s :     0.869606
  5 H s       :     0.871656  s :     0.871656
  6 H s       :     0.869586  s :     0.869586
  7 H s       :     0.865931  s :     0.865931
  8 H s       :     0.865929  s :     0.865929
  9 H s       :     0.874810  s :     0.874810
 10 H s       :     0.874094  s :     0.874094
 11 H s       :     0.874818  s :     0.874818


                      *****************************
                      * MAYER POPULATION ANALYSIS *
                      *****************************

  NA   - Mulliken gross atomic population
  ZA   - Total nuclear charge
  QA   - Mulliken gross atomic charge
  VA   - Mayer's total valence
  BVA  - Mayer's bonded valence
  FA   - Mayer's free valence

  ATOM       NA         ZA         QA         VA         BVA        FA
  0 C      6.4770     6.0000    -0.4770     3.7995     3.7995     0.0000
  1 C      6.1518     6.0000    -0.1518     3.7595     3.7595     0.0000
  2 C      6.4546     6.0000    -0.4546     3.7425     3.7425     0.0000
  3 C      6.6449     6.0000    -0.6449     3.7428     3.7428     0.0000
  4 H      0.7889     1.0000     0.2111     0.9257     0.9257     0.0000
  5 H      0.7912     1.0000     0.2088     0.9250     0.9250    -0.0000
  6 H      0.7834     1.0000     0.2166     0.9167     0.9167     0.0000
  7 H      0.7734     1.0000     0.2266     0.9026     0.9026     0.0000
  8 H      0.7733     1.0000     0.2267     0.9026     0.9026     0.0000
  9 H      0.7887     1.0000     0.2113     0.9157     0.9157     0.0000
 10 H      0.7841     1.0000     0.2159     0.9165     0.9165     0.0000
 11 H      0.7887     1.0000     0.2113     0.9157     0.9157     0.0000

  Mayer bond orders larger than 0.100000
B(  0-C ,  1-C ) :   1.9380 B(  0-C ,  4-H ) :   0.9324 B(  0-C ,  5-H ) :   0.9333 
B(  1-C ,  2-C ) :   0.9756 B(  1-C ,  6-H ) :   0.9220 B(  2-C ,  3-C ) :   0.9893 
B(  2-C ,  7-H ) :   0.9151 B(  2-C ,  8-H ) :   0.9151 B(  3-C ,  9-H ) :   0.9291 
B(  3-C , 10-H ) :   0.9318 B(  3-C , 11-H ) :   0.9291 

-------
TIMINGS
-------

Total SCF time: 0 days 0 hours 0 min 27 sec 

Total time                  ....      27.861 sec
Sum of individual times     ....      27.615 sec  ( 99.1%)

Fock matrix formation       ....      26.467 sec  ( 95.0%)
  Split-RI-J                ....       2.251 sec  (  8.5% of F)
  Chain of spheres X        ....      20.106 sec  ( 76.0% of F)
  XC integration            ....       4.069 sec  ( 15.4% of F)
    Basis function eval.    ....       1.713 sec  ( 42.1% of XC)
    Density eval.           ....       0.929 sec  ( 22.8% of XC)
    XC-Functional eval.     ....       0.682 sec  ( 16.7% of XC)
    XC-Potential eval.      ....       0.555 sec  ( 13.6% of XC)
Diagonalization             ....       0.007 sec  (  0.0%)
Density matrix formation    ....       0.001 sec  (  0.0%)
Population analysis         ....       0.002 sec  (  0.0%)
Initial guess               ....       0.012 sec  (  0.0%)
Orbital Transformation      ....       0.000 sec  (  0.0%)
Orbital Orthonormalization  ....       0.000 sec  (  0.0%)
DIIS solution               ....       0.002 sec  (  0.0%)
SOSCF solution              ....       0.005 sec  (  0.0%)
Grid generation             ....       1.119 sec  (  4.0%)

Maximum memory used throughout the entire SCF-calculation: 50.6 MB


-------------------------------------------------------------------------------
                          DFT DISPERSION CORRECTION                            
                                                                               
                              DFTD3 V3.1  Rev 1                                
                          USING Becke-Johnson damping                          
-------------------------------------------------------------------------------
The PBEh-3c composite method is recognized
Using three-body term ABC
Active option DFTDOPT                   ...         4   

molecular C6(AA) [au] = 1068.645334 


            DFT-D V3
 parameters
 s6 scaling factor         :     1.0000 
 a1 scaling factor         :     0.4860 
 s8 scaling factor         :     0.0000 
 a2 scaling factor         :     4.5000 
 Damping factor alpha9(ATM):    16.0000 
 ad hoc parameters k1-k3   :    16.0000     1.3333    -4.0000 

 Edisp/kcal,au: -2.704239777105  -0.004309479937 
 E6   /kcal   :  -2.707686045 
 E8   /kcal   :  -0.000000000 
 E6(ABC)      :   0.003446268 
 % E8         :   0.000000000 
 % E6(ABC)    :  -0.127439447 

-------------------------   ----------------
Dispersion correction           -0.004309480
-------------------------   ----------------

------------------   -----------------
gCP correction             0.014097893
------------------   -----------------

-------------------------   --------------------
FINAL SINGLE POINT ENERGY      -156.860472434866
-------------------------   --------------------

------------------------------------------------------------------------------
                         ORCA SCF GRADIENT CALCULATION
------------------------------------------------------------------------------

 ... reading COSX grid (gridx3)
Gradient of the Kohn-Sham DFT energy:
Kohn-Sham wavefunction type      ... RKS
Hartree-Fock exchange scaling    ...    0.420
Number of operators              ...    1
Number of atoms                  ...   12
Basis set dimensions             ...   76
Integral neglect threshold       ... 2.5e-11
Integral primitive cutoff        ... 2.5e-12
SHARK Integral package           ... ON

Nuc. rep. gradient       (SHARK) ... done (  0.0 sec)
HCore & Overlap gradient (SHARK) ... done (  0.1 sec)
RI-J gradient            (SHARK) ... done (  0.5 sec)
COSX-gradient                    ... done (  4.3 sec)
Exchange-correlation gradient    ... done
Dispersion correction            ... done
gCP correction                   ... done

------------------
CARTESIAN GRADIENT
------------------

   1   C   :   -0.007211071   -0.004313122    0.011185631
   2   C   :    0.013498842    0.013097905   -0.013699766
   3   C   :   -0.004043361   -0.005155244    0.001867216
   4   C   :   -0.003723865   -0.007470497   -0.002325920
   5   H   :    0.001891614   -0.000055454   -0.004873157
   6   H   :    0.000489703    0.002601796    0.002862862
   7   H   :   -0.001154336   -0.003095609   -0.001973311
   8   H   :    0.008848643   -0.005686441    0.007837257
   9   H   :   -0.011195863    0.006891567   -0.000208339
  10   H   :    0.010932867   -0.008366885   -0.002268781
  11   H   :    0.000257197    0.007866240    0.011738068
  12   H   :   -0.008779723    0.003963360   -0.010150376

Difference to translation invariance:
           :   -0.0001893517    0.0002776161   -0.0000086151

Difference to rotation invariance:
           :    0.0001398102   -0.0001223390   -0.0027527802

Norm of the cartesian gradient     ...    0.0430254311
RMS gradient                       ...    0.0071709052
MAX gradient                       ...    0.0136997660

-------
TIMINGS
-------

Total SCF gradient time            ...        7.000 sec

One electron gradient       ....       0.124 sec  (  1.8%)
RI-J Coulomb gradient       ....       0.541 sec  (  7.7%)
COSX gradient               ....       4.323 sec  ( 61.8%)
XC gradient                 ....       1.383 sec  ( 19.8%)

Maximum memory used throughout the entire SCFGRAD-calculation: 39.4 MB
------------------------------------------------------------------------------
                         ORCA GEOMETRY RELAXATION STEP
------------------------------------------------------------------------------

Reading the OPT-File                    .... done
Getting information on internals        .... done
Copying old internal coords+grads       .... done
Making the new internal coordinates     .... (new redundants).... done
Validating the new internal coordinates .... (new redundants).... done
Calculating the B-matrix                .... done
Calculating the G,G- and P matrices     .... done
Transforming gradient to internals      .... done
Projecting the internal gradient        .... done
Number of atoms                         ....  12
Number of internal coordinates          ....  48
Current Energy                          ....  -156.860472435 Eh
Current gradient norm                   ....     0.043025431 Eh/bohr
Maximum allowed component of the step   ....  0.300
Current trust radius                    ....  0.300
Evaluating the initial hessian          ....  (Almloef) done
Projecting the Hessian                  .... done
Forming the augmented Hessian           .... done
Diagonalizing the augmented Hessian     .... done
Last element of RFO vector              ....  0.992489199
Lowest eigenvalues of augmented Hessian:
 -0.004423777  0.011511952  0.012495405  0.024041416  0.041845493
Length of the computed step             ....  0.123258058
The final length of the internal step   ....  0.123258058
Converting the step to cartesian space:
 Initial RMS(Int)=    0.0177907683
Transforming coordinates:
 Iter   0:  RMS(Cart)=    0.0271499514 RMS(Int)=    0.9068623038
 Iter   1:  RMS(Cart)=    0.0003598331 RMS(Int)=    0.0002083693
 Iter   2:  RMS(Cart)=    0.0000062991 RMS(Int)=    0.0000044916
 Iter   3:  RMS(Cart)=    0.0000001428 RMS(Int)=    0.0000001090
 Iter   4:  RMS(Cart)=    0.0000000039 RMS(Int)=    0.0000000026
done
Storing new coordinates                 .... done

                                .--------------------.
          ----------------------|Geometry convergence|-------------------------
          Item                value                   Tolerance       Converged
          ---------------------------------------------------------------------
          RMS gradient        0.0055357810            0.0001000000      NO
          MAX gradient        0.0138061295            0.0003000000      NO
          RMS step            0.0177907683            0.0020000000      NO
          MAX step            0.0404285664            0.0040000000      NO
          ........................................................
          Max(Bonds)      0.0214      Max(Angles)    2.00
          Max(Dihed)        1.09      Max(Improp)    0.00
          ---------------------------------------------------------------------

The optimization has not yet converged - more geometry cycles are needed


    ---------------------------------------------------------------------------
                         Redundant Internal Coordinates
                            (Angstroem and degrees)

        Definition                    Value    dE/dq     Step     New-Value
    ----------------------------------------------------------------------------
     1. B(C   1,C   0)                1.3350  0.006929 -0.0048    1.3303   
     2. B(C   2,C   1)                1.5042 -0.003789  0.0048    1.5090   
     3. B(C   3,C   2)                1.5253 -0.002159  0.0030    1.5283   
     4. B(H   4,C   0)                1.0852  0.002713 -0.0039    1.0813   
     5. B(H   5,C   0)                1.0860  0.002406 -0.0034    1.0825   
     6. B(H   6,C   1)                1.0870  0.001459 -0.0021    1.0849   
     7. B(H   7,C   2)                1.1116  0.012511 -0.0196    1.0920   
     8. B(H   8,C   2)                1.1116  0.012496 -0.0196    1.0920   
     9. B(H   9,C   3)                1.1111  0.013635 -0.0214    1.0897   
    10. B(H  10,C   3)                1.1104  0.013372 -0.0209    1.0895   
    11. B(H  11,C   3)                1.1111  0.013650 -0.0214    1.0897   
    12. A(C   1,C   0,H   4)          120.05 -0.004028    0.68    120.73   
    13. A(H   4,C   0,H   5)          119.03  0.005147   -0.92    118.12   
    14. A(C   1,C   0,H   5)          120.92 -0.001119    0.23    121.15   
    15. A(C   0,C   1,H   6)          118.88  0.003230   -0.35    118.53   
    16. A(C   0,C   1,C   2)          120.85 -0.013806    2.00    122.85   
    17. A(C   2,C   1,H   6)          120.27  0.010576   -1.65    118.62   
    18. A(H   7,C   2,H   8)          108.89  0.001713   -1.46    107.43   
    19. A(C   1,C   2,H   8)          109.34  0.001682   -0.10    109.24   
    20. A(C   3,C   2,H   7)          108.98  0.000757    0.06    109.04   
    21. A(C   3,C   2,H   8)          108.98  0.000776    0.04    109.02   
    22. A(C   1,C   2,H   7)          109.34  0.001651   -0.08    109.26   
    23. A(C   1,C   2,C   3)          111.27 -0.006433    1.48    112.76   
    24. A(H   9,C   3,H  10)          108.70  0.003803   -0.61    108.09   
    25. A(C   2,C   3,H  10)          109.59 -0.005630    1.12    110.71   
    26. A(C   2,C   3,H   9)          110.28 -0.002605    0.46    110.74   
    27. A(H  10,C   3,H  11)          108.70  0.003825   -0.62    108.08   
    28. A(H   9,C   3,H  11)          109.24  0.003425   -0.83    108.42   
    29. A(C   2,C   3,H  11)          110.28 -0.002606    0.45    110.74   
    30. D(C   2,C   1,C   0,H   4)   -180.00  0.000049   -0.08   -180.08   
    31. D(H   6,C   1,C   0,H   4)      0.00 -0.000001    0.02      0.02   
    32. D(H   6,C   1,C   0,H   5)   -180.00 -0.000062    0.10   -179.90   
    33. D(C   2,C   1,C   0,H   5)     -0.00 -0.000011   -0.01     -0.01   
    34. D(H   7,C   2,C   1,C   0)     59.57  0.001989   -0.80     58.77   
    35. D(C   3,C   2,C   1,H   6)      0.00 -0.000020    0.06      0.06   
    36. D(H   8,C   2,C   1,H   6)    120.43 -0.002035    0.99    121.42   
    37. D(H   8,C   2,C   1,C   0)    -59.57 -0.002086    1.09    -58.47   
    38. D(H   7,C   2,C   1,H   6)   -120.43  0.002041   -0.90   -121.33   
    39. D(C   3,C   2,C   1,C   0)   -180.00 -0.000071    0.16   -179.83   
    40. D(H  10,C   3,C   2,C   1)    180.00  0.000034   -0.04    179.96   
    41. D(H   9,C   3,C   2,H   8)    178.99  0.001028   -0.65    178.33   
    42. D(H   9,C   3,C   2,H   7)     60.28 -0.001928    1.05     61.33   
    43. D(H  10,C   3,C   2,H   7)    -59.36 -0.001470    0.82    -58.53   
    44. D(H   9,C   3,C   2,C   1)    -60.37 -0.000424    0.18    -60.19   
    45. D(H  11,C   3,C   2,H   8)    -60.27  0.001918   -1.09    -61.37   
    46. D(H  11,C   3,C   2,H   7)   -178.99 -0.001038    0.61   -178.38   
    47. D(H  11,C   3,C   2,C   1)     60.37  0.000466   -0.26     60.11   
    48. D(H  10,C   3,C   2,H   8)     59.36  0.001486   -0.88     58.47   
    ----------------------------------------------------------------------------

         *************************************************************
         *                GEOMETRY OPTIMIZATION CYCLE   2            *
         *************************************************************
---------------------------------
CARTESIAN COORDINATES (ANGSTROEM)
---------------------------------
  C     -4.437320   -3.419146    0.122154
  C     -3.654406   -2.412349   -0.256061
  C     -3.301085   -1.263031    0.655693
  C     -2.391690   -0.234325   -0.015448
  H     -4.669411   -4.225143   -0.560312
  H     -4.860689   -3.455856    1.117797
  H     -3.254300   -2.417747   -1.264467
  H     -2.803293   -1.650527    1.547008
  H     -4.218007   -0.767996    0.982240
  H     -1.453674   -0.693440   -0.326723
  H     -2.158678    0.579387    0.670556
  H     -2.874507    0.192213   -0.894347

----------------------------
CARTESIAN COORDINATES (A.U.)
----------------------------
  NO LB      ZA    FRAG     MASS         X           Y           Z
   0 C     6.0000    0    12.011   -8.385320   -6.461250    0.230837
   1 C     6.0000    0    12.011   -6.905826   -4.558678   -0.483886
   2 C     6.0000    0    12.011   -6.238146   -2.386784    1.239080
   3 C     6.0000    0    12.011   -4.519639   -0.442810   -0.029192
   4 H     1.0000    0     1.008   -8.823908   -7.984364   -1.058836
   5 H     1.0000    0     1.008   -9.185371   -6.530622    2.112330
   6 H     1.0000    0     1.008   -6.149735   -4.568879   -2.389496
   7 H     1.0000    0     1.008   -5.297457   -3.119045    2.923422
   8 H     1.0000    0     1.008   -7.970878   -1.451302    1.856165
   9 H     1.0000    0     1.008   -2.747045   -1.310411   -0.617417
  10 H     1.0000    0     1.008   -4.079311    1.094884    1.267167
  11 H     1.0000    0     1.008   -5.432031    0.363230   -1.690070

--------------------------------
INTERNAL COORDINATES (ANGSTROEM)
--------------------------------
 C      0   0   0     0.000000000000     0.00000000     0.00000000
 C      1   0   0     1.330279204102     0.00000000     0.00000000
 C      2   1   0     1.508993642782   122.85077876     0.00000000
 C      3   2   1     1.528288377833   112.74673552   180.16546316
 H      1   2   3     1.081321746635   120.73099035   179.91910885
 H      1   2   3     1.082540507953   121.15291203     0.00000000
 H      2   1   3     1.084894477785   118.52561051   180.10313766
 H      3   2   1     1.091967217585   109.24743503    58.77444191
 H      3   2   1     1.091989171467   109.22974311   301.52638252
 H      4   3   2     1.089748926292   110.73485110   299.81434111
 H      4   3   2     1.089506082419   110.70006883   179.95517325
 H      4   3   2     1.089729374595   110.73279428    60.10994330

---------------------------
INTERNAL COORDINATES (A.U.)
---------------------------
 C      0   0   0     0.000000000000     0.00000000     0.00000000
 C      1   0   0     2.513863377403     0.00000000     0.00000000
 C      2   1   0     2.851584722686   122.85077876     0.00000000
 C      3   2   1     2.888046487760   112.74673552   180.16546316
 H      1   2   3     2.043401963793   120.73099035   179.91910885
 H      1   2   3     2.045705088906   121.15291203     0.00000000
 H      2   1   3     2.050153447217   118.52561051   180.10313766
 H      3   2   1     2.063518988456   109.24743503    58.77444191
 H      3   2   1     2.063560475280   109.22974311   301.52638252
 H      4   3   2     2.059327025427   110.73485110   299.81434111
 H      4   3   2     2.058868117014   110.70006883   179.95517325
 H      4   3   2     2.059290078074   110.73279428    60.10994330

------------------------------------------------------------------------------
                   ___                                                        
                  /   \      - P O W E R E D   B Y -                         
                 /     \                                                     
                 |  |  |   _    _      __       _____    __    __             
                 |  |  |  | |  | |    /  \     |  _  \  |  |  /  |          
                  \  \/   | |  | |   /    \    | | | |  |  | /  /          
                 / \  \   | |__| |  /  /\  \   | |_| |  |  |/  /          
                |  |  |   |  __  | /  /__\  \  |    /   |      \           
                |  |  |   | |  | | |   __   |  |    \   |  |\   \          
                \     /   | |  | | |  |  |  |  | |\  \  |  | \   \       
                 \___/    |_|  |_| |__|  |__|  |_| \__\ |__|  \__/        
                                                                              
                      - O R C A' S   B I G   F R I E N D -                    
                                      &                                       
                       - I N T E G R A L  F E E D E R -                       
                                                                              
 v1 FN, 2020, v2 2021                                                         
------------------------------------------------------------------------------


Reading SHARK input file OPT_C.SHARKINP.tmp ... ok
----------------------
SHARK INTEGRAL PACKAGE
----------------------

Number of atoms                             ...     12
Number of basis functions                   ...     76
Number of shells                            ...     44
Maximum angular momentum                    ...      2
Integral batch strategy                     ... SHARK/LIBINT Hybrid
RI-J (if used) integral strategy            ... SPLIT-RIJ (Revised 2003 algorithm where possible)
Printlevel                                  ...      1
Contraction scheme used                     ... SEGMENTED contraction
Coulomb Range Separation                    ... NOT USED
Exchange Range Separation                   ... NOT USED
Finite Nucleus Model                        ... NOT USED
Auxiliary Coulomb fitting basis             ... AVAILABLE
   # of basis functions in Aux-J            ...    284
   # of shells in Aux-J                     ...    100
   Maximum angular momentum in Aux-J        ...      4
Auxiliary J/K fitting basis                 ... NOT available
Auxiliary Correlation fitting basis         ... NOT available
Auxiliary 'external' fitting basis          ... NOT available
Integral threshold                          ...     2.500000e-11
Primitive cut-off                           ...     2.500000e-12
Primitive pair pre-selection threshold      ...     2.500000e-12

Calculating pre-screening integrals         ... done (  0.0 sec) Dimension = 44
Organizing shell pair data                  ... done (  0.0 sec)
Shell pair information
Total number of shell pairs                 ...       990
Shell pairs after pre-screening             ...       955
Total number of primitive shell pairs       ...      3646
Primitive shell pairs kept                  ...      2705
          la=0 lb=0:    497 shell pairs
          la=1 lb=0:    256 shell pairs
          la=1 lb=1:     36 shell pairs
          la=2 lb=0:    124 shell pairs
          la=2 lb=1:     32 shell pairs
          la=2 lb=2:     10 shell pairs

Calculating one electron integrals          ... done (  0.0 sec)
Calculating RI/J V-Matrix + Cholesky decomp.... done (  0.0 sec)
Calculating Nuclear repulsion               ... done (  0.0 sec) ENN=    116.949273723221 Eh

SHARK setup successfully completed in   0.2 seconds

Maximum memory used throughout the entire GTOINT-calculation: 9.7 MB

Diagonalization of the overlap matrix:
Smallest eigenvalue                        ... 4.401e-03
Time for diagonalization                   ...    0.001 sec
Threshold for overlap eigenvalues          ... 1.000e-08
Number of eigenvalues below threshold      ... 0
Time for construction of square roots      ...    0.000 sec
Total time needed                          ...    0.001 sec

-------------------
DFT GRID GENERATION
-------------------

General Integration Accuracy     IntAcc      ... 4.159
Radial Grid Type                 RadialGrid  ... OptM3 with GC (2021)
Angular Grid (max. ang.)         AngularGrid ... 3 (Lebedev-194)
Angular grid pruning method      GridPruning ... 4 (adaptive)
Weight generation scheme         WeightScheme... Becke
Basis function cutoff            BFCut       ... 1.0000e-11
Integration weight cutoff        WCut        ... 1.0000e-14
Angular grids for H and He will be reduced by one unit
Partially contracted basis set               ... off
Rotationally invariant grid construction     ... off

Total number of grid points                  ...    24578
Total number of batches                      ...      389
Average number of points per batch           ...       63
Average number of grid points per atom       ...     2048
Time for grid setup =    0.310 sec

--------------------
COSX GRID GENERATION
--------------------

GRIDX 1
-------
General Integration Accuracy     IntAcc      ... 3.816
Radial Grid Type                 RadialGrid  ... OptM3 with GC (2021)
Angular Grid (max. ang.)         AngularGrid ... 1 (Lebedev-50)
Angular grid pruning method      GridPruning ... 4 (adaptive)
Weight generation scheme         WeightScheme... Becke
Basis function cutoff            BFCut       ... 1.0000e-11
Integration weight cutoff        WCut        ... 1.0000e-14
Angular grids for H and He will be reduced by one unit
Partially contracted basis set               ... on
Rotationally invariant grid construction     ... off

Total number of grid points                  ...     6483
Total number of batches                      ...      108
Average number of points per batch           ...       60
Average number of grid points per atom       ...      540
UseSFitting                                  ... on

GRIDX 2
-------
General Integration Accuracy     IntAcc      ... 4.020
Radial Grid Type                 RadialGrid  ... OptM3 with GC (2021)
Angular Grid (max. ang.)         AngularGrid ... 2 (Lebedev-110)
Angular grid pruning method      GridPruning ... 4 (adaptive)
Weight generation scheme         WeightScheme... Becke
Basis function cutoff            BFCut       ... 1.0000e-11
Integration weight cutoff        WCut        ... 1.0000e-14
Angular grids for H and He will be reduced by one unit
Partially contracted basis set               ... on
Rotationally invariant grid construction     ... off

Total number of grid points                  ...    13521
Total number of batches                      ...      219
Average number of points per batch           ...       61
Average number of grid points per atom       ...     1127
UseSFitting                                  ... on

GRIDX 3
-------
General Integration Accuracy     IntAcc      ... 4.338
Radial Grid Type                 RadialGrid  ... OptM3 with GC (2021)
Angular Grid (max. ang.)         AngularGrid ... 3 (Lebedev-194)
Angular grid pruning method      GridPruning ... 4 (adaptive)
Weight generation scheme         WeightScheme... Becke
Basis function cutoff            BFCut       ... 1.0000e-11
Integration weight cutoff        WCut        ... 1.0000e-14
Angular grids for H and He will be reduced by one unit
Partially contracted basis set               ... on
Rotationally invariant grid construction     ... off

Total number of grid points                  ...    29604
Total number of batches                      ...      468
Average number of points per batch           ...       63
Average number of grid points per atom       ...     2467
UseSFitting                                  ... on

Time for X-Grid setup             =    0.963 sec

--------------
SCF ITERATIONS
--------------
ITER       Energy         Delta-E        Max-DP      RMS-DP      [F,P]     Damp
               ***  Starting incremental Fock matrix formation  ***
  0   -156.8721825674   0.000000000000 0.00290013  0.00015395  0.0082352 0.7000
                      *** Initiating the SOSCF procedure ***
                      *** Re-Reading the Fockian *** 
                      *** Removing any level shift *** 
ITER      Energy       Delta-E        Grad      Rot      Max-DP    RMS-DP
  1   -156.87235797  -0.0001754068  0.000598  0.000598  0.006212  0.000413
               *** Restarting incremental Fock matrix formation ***
  2   -156.87270856  -0.0003505859  0.001343  0.001467  0.004419  0.000187
  3   -156.87272197  -0.0000134114  0.001231  0.000812  0.002141  0.000084
  4   -156.87274398  -0.0000220083  0.000054  0.000161  0.000185  0.000010
  5   -156.87274404  -0.0000000636  0.000049  0.000076  0.000097  0.000004
  6   -156.87274408  -0.0000000361  0.000019  0.000033  0.000039  0.000002
  7   -156.87274408  -0.0000000019  0.000007  0.000008  0.000018  0.000001
                  ***Gradient check signals convergence***
              ***Rediagonalizing the Fockian in SOSCF/NRSCF***

               *****************************************************
               *                     SUCCESS                       *
               *           SCF CONVERGED AFTER   8 CYCLES          *
               *****************************************************

Old exchange energy                            =     -9.888371336 Eh
New exchange energy                            =     -9.888358349 Eh
Exchange energy change after final integration =      0.000012987 Eh
Total energy after final integration           =   -156.872731096 Eh
Final COS-X integration done in                =     2.836 sec
Total Energy       :         -156.87273110 Eh           -4268.72403 eV
  Last Energy change         ...   -1.7852e-09  Tolerance :   1.0000e-08
  Last MAX-Density change    ...    1.7764e-15  Tolerance :   1.0000e-07
             **** THE GBW FILE WAS UPDATED (OPT_C.gbw) ****
             **** DENSITY OPT_C.scfp WAS UPDATED ****
             **** ENERGY FILE WAS UPDATED (OPT_C.en.tmp) ****
             **** THE GBW FILE WAS UPDATED (OPT_C.gbw) ****
             **** DENSITY OPT_C.scfp WAS UPDATED ****
Total SCF time: 0 days 0 hours 0 min 20 sec 

Maximum memory used throughout the entire SCF-calculation: 50.7 MB


-------------------------------------------------------------------------------
                          DFT DISPERSION CORRECTION                            
                                                                               
                              DFTD3 V3.1  Rev 1                                
                          USING Becke-Johnson damping                          
-------------------------------------------------------------------------------
-------------------------   ----------------
Dispersion correction           -0.004297495
-------------------------   ----------------

------------------   -----------------
gCP correction             0.013978036
------------------   -----------------

-------------------------   --------------------
FINAL SINGLE POINT ENERGY      -156.863050554637
-------------------------   --------------------

------------------------------------------------------------------------------
                         ORCA SCF GRADIENT CALCULATION
------------------------------------------------------------------------------

 ... reading COSX grid (gridx3)
Gradient of the Kohn-Sham DFT energy:
Kohn-Sham wavefunction type      ... RKS
Hartree-Fock exchange scaling    ...    0.420
Number of operators              ...    1
Number of atoms                  ...   12
Basis set dimensions             ...   76
Integral neglect threshold       ... 2.5e-11
Integral primitive cutoff        ... 2.5e-12
SHARK Integral package           ... ON

Nuc. rep. gradient       (SHARK) ... done (  0.0 sec)
HCore & Overlap gradient (SHARK) ... done (  0.1 sec)
RI-J gradient            (SHARK) ... done (  0.5 sec)
COSX-gradient                    ... done (  3.8 sec)
Exchange-correlation gradient    ... done
Dispersion correction            ... done
gCP correction                   ... done

------------------
CARTESIAN GRADIENT
------------------

   1   C   :   -0.004670356   -0.003846174    0.005671796
   2   C   :    0.005960083    0.004378650   -0.008070732
   3   C   :   -0.004767227   -0.002089145    0.008533722
   4   C   :    0.003162366    0.002805727   -0.003593143
   5   H   :    0.001380439    0.001090589   -0.001908476
   6   H   :    0.001153067    0.001949683    0.000082473
   7   H   :   -0.001395464   -0.001972229    0.000168970
   8   H   :    0.001478514   -0.000421531   -0.001424034
   9   H   :   -0.000057407    0.000596810   -0.002075544
  10   H   :   -0.000671367   -0.000935561    0.000874145
  11   H   :   -0.000742649   -0.000591475    0.000977417
  12   H   :   -0.001026443   -0.000686168    0.000754321

Difference to translation invariance:
           :   -0.0001964447    0.0002791758   -0.0000090834

Difference to rotation invariance:
           :    0.0000854056   -0.0000545124   -0.0028257015

Norm of the cartesian gradient     ...    0.0187655218
RMS gradient                       ...    0.0031275870
MAX gradient                       ...    0.0085337217

-------
TIMINGS
-------

Total SCF gradient time            ...        6.356 sec

One electron gradient       ....       0.077 sec  (  1.2%)
RI-J Coulomb gradient       ....       0.492 sec  (  7.7%)
COSX gradient               ....       3.836 sec  ( 60.3%)
XC gradient                 ....       1.374 sec  ( 21.6%)

Maximum memory used throughout the entire SCFGRAD-calculation: 39.4 MB
------------------------------------------------------------------------------
                         ORCA GEOMETRY RELAXATION STEP
------------------------------------------------------------------------------

Reading the OPT-File                    .... done
Getting information on internals        .... done
Copying old internal coords+grads       .... done
Making the new internal coordinates     .... (new redundants).... done
Validating the new internal coordinates .... (new redundants).... done
Calculating the B-matrix                .... done
Calculating the G,G- and P matrices     .... done
Transforming gradient to internals      .... done
Projecting the internal gradient        .... done
Number of atoms                         ....  12
Number of internal coordinates          ....  48
Current Energy                          ....  -156.863050555 Eh
Current gradient norm                   ....     0.018765522 Eh/bohr
Maximum allowed component of the step   ....  0.300
Current trust radius                    ....  0.300
Updating the Hessian (BFGS)             .... done
Forming the augmented Hessian           .... done
Diagonalizing the augmented Hessian     .... done
Last element of RFO vector              ....  0.998642593
Lowest eigenvalues of augmented Hessian:
 -0.000498674  0.011511833  0.012494074  0.024041543  0.041845403
Length of the computed step             ....  0.052156994
The final length of the internal step   ....  0.052156994
Converting the step to cartesian space:
 Initial RMS(Int)=    0.0075282136
Transforming coordinates:
 Iter   0:  RMS(Cart)=    0.0137760622 RMS(Int)=    0.0075348720
 Iter   1:  RMS(Cart)=    0.0001265138 RMS(Int)=    0.0000712306
 Iter   2:  RMS(Cart)=    0.0000012877 RMS(Int)=    0.0000007175
 Iter   3:  RMS(Cart)=    0.0000000218 RMS(Int)=    0.0000000166
done
Storing new coordinates                 .... done

                                .--------------------.
          ----------------------|Geometry convergence|-------------------------
          Item                value                   Tolerance       Converged
          ---------------------------------------------------------------------
          Energy change      -0.0025781198            0.0000050000      NO
          RMS gradient        0.0016068270            0.0001000000      NO
          MAX gradient        0.0066323865            0.0003000000      NO
          RMS step            0.0075282136            0.0020000000      NO
          MAX step            0.0229378828            0.0040000000      NO
          ........................................................
          Max(Bonds)      0.0028      Max(Angles)    1.31
          Max(Dihed)        0.71      Max(Improp)    0.00
[...]
Weight generation scheme         WeightScheme... Becke
Basis function cutoff            BFCut       ... 1.0000e-11
Integration weight cutoff        WCut        ... 1.0000e-14
Angular grids for H and He will be reduced by one unit
Partially contracted basis set               ... on
Rotationally invariant grid construction     ... off

Total number of grid points                  ...    13535
Total number of batches                      ...      219
Average number of points per batch           ...       61
Average number of grid points per atom       ...     1128
UseSFitting                                  ... on

GRIDX 3
-------
General Integration Accuracy     IntAcc      ... 4.338
Radial Grid Type                 RadialGrid  ... OptM3 with GC (2021)
Angular Grid (max. ang.)         AngularGrid ... 3 (Lebedev-194)
Angular grid pruning method      GridPruning ... 4 (adaptive)
Weight generation scheme         WeightScheme... Becke
Basis function cutoff            BFCut       ... 1.0000e-11
Integration weight cutoff        WCut        ... 1.0000e-14
Angular grids for H and He will be reduced by one unit
Partially contracted basis set               ... on
Rotationally invariant grid construction     ... off

Total number of grid points                  ...    29611
Total number of batches                      ...      469
Average number of points per batch           ...       63
Average number of grid points per atom       ...     2468
UseSFitting                                  ... on

Time for X-Grid setup             =    0.318 sec

--------------
SCF ITERATIONS
--------------
ITER       Energy         Delta-E        Max-DP      RMS-DP      [F,P]     Damp
               ***  Starting incremental Fock matrix formation  ***
                      *** Initiating the SOSCF procedure ***
                      *** Re-Reading the Fockian *** 
                      *** Removing any level shift *** 
ITER      Energy       Delta-E        Grad      Rot      Max-DP    RMS-DP
  0   -156.87655982 -156.8765598170  0.000273  0.000273  0.000410  0.000024
               *** Restarting incremental Fock matrix formation ***
  1   -156.87656275  -0.0000029319  0.000146  0.000301  0.000197  0.000015
  2   -156.87656324  -0.0000004880  0.000039  0.000110  0.000070  0.000005
  3   -156.87656327  -0.0000000295  0.000012  0.000031  0.000030  0.000001
  4   -156.87656327  -0.0000000006  0.000013  0.000017  0.000015  0.000001
                  ***Gradient check signals convergence***
              ***Rediagonalizing the Fockian in SOSCF/NRSCF***

               *****************************************************
               *                     SUCCESS                       *
               *           SCF CONVERGED AFTER   5 CYCLES          *
               *****************************************************

Old exchange energy                            =     -9.889547671 Eh
New exchange energy                            =     -9.889591748 Eh
Exchange energy change after final integration =     -0.000044076 Eh
Total energy after final integration           =   -156.876607344 Eh
Final COS-X integration done in                =     1.326 sec

----------------
TOTAL SCF ENERGY
----------------

Total Energy       :         -156.87660734 Eh           -4268.82951 eV

Components:
Nuclear Repulsion  :          117.56255417 Eh            3199.03973 eV
Electronic Energy  :         -274.43916151 Eh           -7467.86924 eV
One Electron Energy:         -442.24974814 Eh          -12034.22746 eV
Two Electron Energy:          167.81058663 Eh            4566.35821 eV
Max COSX asymmetry :            0.00000331 Eh               0.00009 eV

Virial components:
Potential Energy   :         -312.45196472 Eh           -8502.25021 eV
Kinetic Energy     :          155.57535738 Eh            4233.42070 eV
Virial Ratio       :            2.00836411


DFT components:
N(Alpha)           :       16.000049418602 electrons
N(Beta)            :       16.000049418602 electrons
N(Total)           :       32.000098837204 electrons
E(X)               :      -13.103722787153 Eh       
E(C)               :       -1.339646484885 Eh       
E(XC)              :      -14.443369272038 Eh       
DFET-embed. en.    :        0.000000000000 Eh       

---------------
SCF CONVERGENCE
---------------

  Last Energy change         ...   -1.0604e-09  Tolerance :   1.0000e-08
  Last MAX-Density change    ...    7.7716e-16  Tolerance :   1.0000e-07
  Last RMS-Density change    ...    4.0149e-17  Tolerance :   5.0000e-09
  Last Orbital Gradient      ...    7.2671e-07  Tolerance :   1.0000e-05
  Last Orbital Rotation      ...    8.5053e-07  Tolerance :   1.0000e-05

             **** THE GBW FILE WAS UPDATED (OPT_C.gbw) ****
             **** DENSITY OPT_C.scfp WAS UPDATED ****
             **** ENERGY FILE WAS UPDATED (OPT_C.en.tmp) ****
             **** THE GBW FILE WAS UPDATED (OPT_C.gbw) ****
             **** DENSITY OPT_C.scfp WAS UPDATED ****
----------------
ORBITAL ENERGIES
----------------

  NO   OCC          E(Eh)            E(eV) 
   0   2.0000     -10.442107      -284.1442 
   1   2.0000     -10.437121      -284.0085 
   2   2.0000     -10.428646      -283.7779 
   3   2.0000     -10.425407      -283.6897 
   4   2.0000      -0.892110       -24.2755 
   5   2.0000      -0.813290       -22.1308 
   6   2.0000      -0.702612       -19.1190 
   7   2.0000      -0.621042       -16.8994 
   8   2.0000      -0.531433       -14.4610 
   9   2.0000      -0.500380       -13.6160 
  10   2.0000      -0.480700       -13.0805 
  11   2.0000      -0.435061       -11.8386 
  12   2.0000      -0.425502       -11.5785 
  13   2.0000      -0.390924       -10.6376 
  14   2.0000      -0.382728       -10.4146 
  15   2.0000      -0.298578        -8.1247 
  16   0.0000       0.049795         1.3550 
  17   0.0000       0.156406         4.2560 
  18   0.0000       0.182245         4.9591 
  19   0.0000       0.186081         5.0635 
  20   0.0000       0.209733         5.7071 
  21   0.0000       0.221932         6.0391 
  22   0.0000       0.226628         6.1669 
  23   0.0000       0.230575         6.2743 
  24   0.0000       0.241625         6.5749 
  25   0.0000       0.262894         7.1537 
  26   0.0000       0.337864         9.1937 
  27   0.0000       0.368693        10.0327 
  28   0.0000       0.498074        13.5533 
  29   0.0000       0.500669        13.6239 
  30   0.0000       0.522728        14.2242 
  31   0.0000       0.546950        14.8833 
  32   0.0000       0.569354        15.4929 
  33   0.0000       0.606902        16.5147 
  34   0.0000       0.640954        17.4412 
  35   0.0000       0.677214        18.4279 
  36   0.0000       0.709519        19.3070 
  37   0.0000       0.738215        20.0879 
  38   0.0000       0.813607        22.1394 
  39   0.0000       0.860771        23.4228 
  40   0.0000       0.934203        25.4210 
  41   0.0000       0.988934        26.9103 
  42   0.0000       1.018558        27.7164 
  43   0.0000       1.025898        27.9161 
  44   0.0000       1.048564        28.5329 
  45   0.0000       1.066090        29.0098 
  46   0.0000       1.078193        29.3391 
  47   0.0000       1.090140        29.6642 
  48   0.0000       1.144378        31.1401 
  49   0.0000       1.177650        32.0455 
  50   0.0000       1.282316        34.8936 
  51   0.0000       1.423017        38.7222 
  52   0.0000       1.483388        40.3650 
  53   0.0000       1.594298        43.3831 
  54   0.0000       1.680662        45.7331 
  55   0.0000       1.742277        47.4098 
  56   0.0000       1.862128        50.6711 
  57   0.0000       1.961411        53.3727 
  58   0.0000       1.996015        54.3143 
  59   0.0000       2.002748        54.4975 
  60   0.0000       2.039287        55.4918 
  61   0.0000       2.150850        58.5276 
  62   0.0000       2.205708        60.0204 
  63   0.0000       2.310728        62.8781 
  64   0.0000       2.370518        64.5051 
  65   0.0000       2.384379        64.8822 
  66   0.0000       2.428140        66.0731 
  67   0.0000       2.534193        68.9589 
  68   0.0000       2.615869        71.1814 
  69   0.0000       2.663140        72.4677 
  70   0.0000       2.828410        76.9650 
  71   0.0000       2.957311        80.4725 
  72   0.0000      13.408552       364.8653 
  73   0.0000      13.716320       373.2400 
  74   0.0000      13.986066       380.5802 
  75   0.0000      14.164892       385.4463 

                    ********************************
                    * MULLIKEN POPULATION ANALYSIS *
                    ********************************

-----------------------
MULLIKEN ATOMIC CHARGES
-----------------------
   0 C :   -0.487398
   1 C :   -0.123534
   2 C :   -0.473191
   3 C :   -0.639390
   4 H :    0.212991
   5 H :    0.207075
   6 H :    0.209634
   7 H :    0.221278
   8 H :    0.218268
   9 H :    0.211159
  10 H :    0.219693
  11 H :    0.223414
Sum of atomic charges:    0.0000000

--------------------------------
MULLIKEN REDUCED ORBITAL CHARGES
--------------------------------
  0 C s       :     3.318850  s :     3.318850
      pz      :     1.066695  p :     3.135649
      px      :     1.008324
      py      :     1.060630
      dz2     :     0.001501  d :     0.032899
      dxz     :     0.008789
      dyz     :     0.006151
      dx2y2   :     0.009196
      dxy     :     0.007261
  1 C s       :     3.212910  s :     3.212910
      pz      :     0.957882  p :     2.869714
      px      :     0.981253
      py      :     0.930579
      dz2     :     0.003068  d :     0.040910
      dxz     :     0.011420
      dyz     :     0.006122
      dx2y2   :     0.010181
      dxy     :     0.010118
  2 C s       :     3.343749  s :     3.343749
      pz      :     1.024568  p :     3.085096
      px      :     1.126677
      py      :     0.933852
      dz2     :     0.003343  d :     0.044346
      dxz     :     0.014141
      dyz     :     0.010738
      dx2y2   :     0.009754
      dxy     :     0.006370
  3 C s       :     3.376704  s :     3.376704
      pz      :     1.078466  p :     3.225553
      px      :     1.119227
      py      :     1.027859
      dz2     :     0.001631  d :     0.037133
      dxz     :     0.012311
      dyz     :     0.010341
      dx2y2   :     0.008011
      dxy     :     0.004839
  4 H s       :     0.787009  s :     0.787009
  5 H s       :     0.792925  s :     0.792925
  6 H s       :     0.790366  s :     0.790366
  7 H s       :     0.778722  s :     0.778722
  8 H s       :     0.781732  s :     0.781732
  9 H s       :     0.788841  s :     0.788841
 10 H s       :     0.780307  s :     0.780307
 11 H s       :     0.776586  s :     0.776586


                     *******************************
                     * LOEWDIN POPULATION ANALYSIS *
                     *******************************

----------------------
LOEWDIN ATOMIC CHARGES
----------------------
   0 C :   -0.278474
   1 C :   -0.139302
   2 C :   -0.244576
   3 C :   -0.359578
   4 H :    0.130586
   5 H :    0.126682
   6 H :    0.126773
   7 H :    0.130170
   8 H :    0.126977
   9 H :    0.124593
  10 H :    0.126873
  11 H :    0.129275

-------------------------------
LOEWDIN REDUCED ORBITAL CHARGES
-------------------------------
  0 C s       :     2.962363  s :     2.962363
      pz      :     1.060129  p :     3.248693
      px      :     1.111036
      py      :     1.077528
      dz2     :     0.003994  d :     0.067419
      dxz     :     0.016865
      dyz     :     0.009262
      dx2y2   :     0.020050
      dxy     :     0.017247
  1 C s       :     2.914057  s :     2.914057
      pz      :     1.000560  p :     3.134677
      px      :     1.109289
      py      :     1.024827
      dz2     :     0.007740  d :     0.090568
      dxz     :     0.022397
      dyz     :     0.012451
      dx2y2   :     0.024134
      dxy     :     0.023846
  2 C s       :     2.905024  s :     2.905024
      pz      :     1.085965  p :     3.248894
      px      :     1.105544
      py      :     1.057385
      dz2     :     0.006872  d :     0.090657
      dxz     :     0.025968
      dyz     :     0.024972
      dx2y2   :     0.019912
      dxy     :     0.012932
  3 C s       :     2.955101  s :     2.955101
      pz      :     1.117012  p :     3.335387
      px      :     1.130288
      py      :     1.088087
      dz2     :     0.003495  d :     0.069090
      dxz     :     0.021405
      dyz     :     0.019965
      dx2y2   :     0.014855
      dxy     :     0.009370
  4 H s       :     0.869414  s :     0.869414
  5 H s       :     0.873318  s :     0.873318
  6 H s       :     0.873227  s :     0.873227
  7 H s       :     0.869830  s :     0.869830
  8 H s       :     0.873023  s :     0.873023
  9 H s       :     0.875407  s :     0.875407
 10 H s       :     0.873127  s :     0.873127
 11 H s       :     0.870725  s :     0.870725


                      *****************************
                      * MAYER POPULATION ANALYSIS *
                      *****************************

  NA   - Mulliken gross atomic population
  ZA   - Total nuclear charge
  QA   - Mulliken gross atomic charge
  VA   - Mayer's total valence
  BVA  - Mayer's bonded valence
  FA   - Mayer's free valence

  ATOM       NA         ZA         QA         VA         BVA        FA
  0 C      6.4874     6.0000    -0.4874     3.8221     3.8221    -0.0000
  1 C      6.1235     6.0000    -0.1235     3.7705     3.7705    -0.0000
  2 C      6.4732     6.0000    -0.4732     3.7663     3.7663    -0.0000
  3 C      6.6394     6.0000    -0.6394     3.7222     3.7222     0.0000
  4 H      0.7870     1.0000     0.2130     0.9239     0.9239    -0.0000
  5 H      0.7929     1.0000     0.2071     0.9253     0.9253    -0.0000
  6 H      0.7904     1.0000     0.2096     0.9143     0.9143    -0.0000
  7 H      0.7787     1.0000     0.2213     0.8999     0.8999    -0.0000
  8 H      0.7817     1.0000     0.2183     0.9085     0.9085    -0.0000
  9 H      0.7888     1.0000     0.2112     0.9139     0.9139     0.0000
 10 H      0.7803     1.0000     0.2197     0.9125     0.9125     0.0000
 11 H      0.7766     1.0000     0.2234     0.9099     0.9099     0.0000

  Mayer bond orders larger than 0.100000
B(  0-C ,  1-C ) :   1.9410 B(  0-C ,  4-H ) :   0.9303 B(  0-C ,  5-H ) :   0.9308 
B(  1-C ,  2-C ) :   0.9956 B(  1-C ,  6-H ) :   0.9179 B(  2-C ,  3-C ) :   0.9778 
B(  2-C ,  7-H ) :   0.9119 B(  2-C ,  8-H ) :   0.9230 B(  3-C ,  9-H ) :   0.9296 
B(  3-C , 10-H ) :   0.9290 B(  3-C , 11-H ) :   0.9264 

-------
TIMINGS
-------

Total SCF time: 0 days 0 hours 0 min 6 sec 

Total time                  ....       6.479 sec
Sum of individual times     ....       6.400 sec  ( 98.8%)

Fock matrix formation       ....       5.956 sec  ( 91.9%)
  Split-RI-J                ....       0.424 sec  (  7.1% of F)
  Chain of spheres X        ....       4.854 sec  ( 81.5% of F)
  XC integration            ....       0.690 sec  ( 11.6% of F)
    Basis function eval.    ....       0.313 sec  ( 45.4% of XC)
    Density eval.           ....       0.114 sec  ( 16.5% of XC)
    XC-Functional eval.     ....       0.115 sec  ( 16.7% of XC)
    XC-Potential eval.      ....       0.100 sec  ( 14.5% of XC)
Diagonalization             ....       0.001 sec  (  0.0%)
Density matrix formation    ....       0.000 sec  (  0.0%)
Population analysis         ....       0.001 sec  (  0.0%)
Initial guess               ....       0.001 sec  (  0.0%)
Orbital Transformation      ....       0.000 sec  (  0.0%)
Orbital Orthonormalization  ....       0.001 sec  (  0.0%)
DIIS solution               ....       0.000 sec  (  0.0%)
SOSCF solution              ....       0.002 sec  (  0.0%)
Grid generation             ....       0.438 sec  (  6.8%)

Maximum memory used throughout the entire SCF-calculation: 50.7 MB


-------------------------------------------------------------------------------
                          DFT DISPERSION CORRECTION                            
                                                                               
                              DFTD3 V3.1  Rev 1                                
                          USING Becke-Johnson damping                          
-------------------------------------------------------------------------------
The PBEh-3c composite method is recognized
Using three-body term ABC
Active option DFTDOPT                   ...         4   

molecular C6(AA) [au] = 1068.507305 


            DFT-D V3
 parameters
 s6 scaling factor         :     1.0000 
 a1 scaling factor         :     0.4860 
 s8 scaling factor         :     0.0000 
 a2 scaling factor         :     4.5000 
 Damping factor alpha9(ATM):    16.0000 
 ad hoc parameters k1-k3   :    16.0000     1.3333    -4.0000 

 Edisp/kcal,au: -2.712199416229  -0.004322164428 
 E6   /kcal   :  -2.717977068 
 E8   /kcal   :  -0.000000000 
 E6(ABC)      :   0.005777651 
 % E8         :   0.000000000 
 % E6(ABC)    :  -0.213024577 

-------------------------   ----------------
Dispersion correction           -0.004322164
-------------------------   ----------------

------------------   -----------------
gCP correction             0.013890655
------------------   -----------------

-------------------------   --------------------
FINAL SINGLE POINT ENERGY      -156.867038853506
-------------------------   --------------------

                                *** OPTIMIZATION RUN DONE ***

                            ***************************************
                            *     ORCA property calculations      *
                            ***************************************

                                    ---------------------
                                    Active property flags
                                    ---------------------
   (+) Dipole Moment


------------------------------------------------------------------------------
                       ORCA ELECTRIC PROPERTIES CALCULATION
------------------------------------------------------------------------------

Dipole Moment Calculation                       ... on
Quadrupole Moment Calculation                   ... off
Polarizability Calculation                      ... off
GBWName                                         ... OPT_C.gbw
Electron density                                ... OPT_C.scfp
The origin for moment calculation is the CENTER OF MASS  = (-6.414799, -3.413028  0.288162)

-------------
DIPOLE MOMENT
-------------
                                X             Y             Z
Electronic contribution:     -0.58155      -1.84574       0.07934
Nuclear contribution   :      0.67359       1.95116      -0.05302
                        -----------------------------------------
Total Dipole Moment    :      0.09204       0.10542       0.02632
                        -----------------------------------------
Magnitude (a.u.)       :      0.14240
Magnitude (Debye)      :      0.36196



--------------------
Rotational spectrum 
--------------------
 
Rotational constants in cm-1:     0.753439     0.139795     0.136675 
Rotational constants in MHz : 22587.542673  4190.945826  4097.418867 

 Dipole components along the rotational axes: 
x,y,z [a.u.] :     0.139466     0.014492    -0.024851 
x,y,z [Debye]:     0.354494     0.036835    -0.063167 

 

Timings for individual modules:

Sum of individual times         ...      388.795 sec (=   6.480 min)
GTO integral calculation        ...        4.179 sec (=   0.070 min)   1.1 %
SCF iterations                  ...      292.048 sec (=   4.867 min)  75.1 %
SCF Gradient evaluation         ...       91.879 sec (=   1.531 min)  23.6 %
Geometry relaxation             ...        0.688 sec (=   0.011 min)   0.2 %
                             ****ORCA TERMINATED NORMALLY****
TOTAL RUN TIME: 0 days 0 hours 6 minutes 31 seconds 347 msec
