
                                 *****************
                                 * O   R   C   A *
                                 *****************

                                            #,                                       
                                            ###                                      
                                            ####                                     
                                            #####                                    
                                            ######                                   
                                           ########,                                 
                                     ,,################,,,,,                         
                               ,,#################################,,                 
                          ,,##########################################,,             
                       ,#########################################, ''#####,          
                    ,#############################################,,   '####,        
                  ,##################################################,,,,####,       
                ,###########''''           ''''###############################       
              ,#####''   ,,,,##########,,,,          '''####'''          '####       
            ,##' ,,,,###########################,,,                        '##       
           ' ,,###''''                  '''############,,,                           
         ,,##''                                '''############,,,,        ,,,,,,###''
      ,#''                                            '''#######################'''  
     '                                                          ''''####''''         
             ,#######,   #######,   ,#######,      ##                                
            ,#'     '#,  ##    ##  ,#'     '#,    #''#        ######   ,####,        
            ##       ##  ##   ,#'  ##            #'  '#       #        #'  '#        
            ##       ##  #######   ##           ,######,      #####,   #    #        
            '#,     ,#'  ##    ##  '#,     ,#' ,#      #,         ##   #,  ,#        
             '#######'   ##     ##  '#######'  #'      '#     #####' # '####'        



                  #######################################################
                  #                        -***-                        #
                  #          Department of theory and spectroscopy      #
                  #    Directorship and core code : Frank Neese         #
                  #        Max Planck Institute fuer Kohlenforschung    #
                  #                Kaiser Wilhelm Platz 1               #
                  #                 D-45470 Muelheim/Ruhr               #
                  #                      Germany                        #
                  #                                                     #
                  #                  All rights reserved                #
                  #                        -***-                        #
                  #######################################################


                         Program Version 5.0.2 -  RELEASE  -


 With contributions from (in alphabetic order):
   Daniel Aravena         : Magnetic Suceptibility
   Michael Atanasov       : Ab Initio Ligand Field Theory (pilot matlab implementation)
   Alexander A. Auer      : GIAO ZORA, VPT2 properties, NMR spectrum
   Ute Becker             : Parallelization
   Giovanni Bistoni       : ED, misc. LED, open-shell LED, HFLD
   Martin Brehm           : Molecular dynamics
   Dmytro Bykov           : SCF Hessian
   Vijay G. Chilkuri      : MRCI spin determinant printing, contributions to CSF-ICE
   Dipayan Datta          : RHF DLPNO-CCSD density
   Achintya Kumar Dutta   : EOM-CC, STEOM-CC
   Dmitry Ganyushin       : Spin-Orbit,Spin-Spin,Magnetic field MRCI
   Miquel Garcia          : C-PCM and meta-GGA Hessian, CC/C-PCM, Gaussian charge scheme
   Yang Guo               : DLPNO-NEVPT2, F12-NEVPT2, CIM, IAO-localization
   Andreas Hansen         : Spin unrestricted coupled pair/coupled cluster methods
   Benjamin Helmich-Paris : MC-RPA, TRAH-SCF, COSX integrals
   Lee Huntington         : MR-EOM, pCC
   Robert Izsak           : Overlap fitted RIJCOSX, COSX-SCS-MP3, EOM
   Marcus Kettner         : VPT2
   Christian Kollmar      : KDIIS, OOCD, Brueckner-CCSD(T), CCSD density, CASPT2, CASPT2-K
   Simone Kossmann        : Meta GGA functionals, TD-DFT gradient, OOMP2, MP2 Hessian
   Martin Krupicka        : Initial AUTO-CI
   Lucas Lang             : DCDCAS
   Marvin Lechner         : AUTO-CI (C++ implementation), FIC-MRCC
   Dagmar Lenk            : GEPOL surface, SMD
   Dimitrios Liakos       : Extrapolation schemes; Compound Job, initial MDCI parallelization
   Dimitrios Manganas     : Further ROCIS development; embedding schemes
   Dimitrios Pantazis     : SARC Basis sets
   Anastasios Papadopoulos: AUTO-CI, single reference methods and gradients
   Taras Petrenko         : DFT Hessian,TD-DFT gradient, ASA, ECA, R-Raman, ABS, FL, XAS/XES, NRVS
   Peter Pinski           : DLPNO-MP2, DLPNO-MP2 Gradient
   Christoph Reimann      : Effective Core Potentials
   Marius Retegan         : Local ZFS, SOC
   Christoph Riplinger    : Optimizer, TS searches, QM/MM, DLPNO-CCSD(T), (RO)-DLPNO pert. Triples
   Tobias Risthaus        : Range-separated hybrids, TD-DFT gradient, RPA, STAB
   Michael Roemelt        : Original ROCIS implementation
   Masaaki Saitow         : Open-shell DLPNO-CCSD energy and density
   Barbara Sandhoefer     : DKH picture change effects
   Avijit Sen             : IP-ROCIS
   Kantharuban Sivalingam : CASSCF convergence, NEVPT2, FIC-MRCI
   Bernardo de Souza      : ESD, SOC TD-DFT
   Georgi Stoychev        : AutoAux, RI-MP2 NMR, DLPNO-MP2 response
   Willem Van den Heuvel  : Paramagnetic NMR
   Boris Wezisla          : Elementary symmetry handling
   Frank Wennmohs         : Technical directorship


 We gratefully acknowledge several colleagues who have allowed us to
 interface, adapt or use parts of their codes:
   Stefan Grimme, W. Hujo, H. Kruse, P. Pracht,  : VdW corrections, initial TS optimization,
                  C. Bannwarth, S. Ehlert          DFT functionals, gCP, sTDA/sTD-DF
   Ed Valeev, F. Pavosevic, A. Kumar             : LibInt (2-el integral package), F12 methods
   Garnet Chan, S. Sharma, J. Yang, R. Olivares  : DMRG
   Ulf Ekstrom                                   : XCFun DFT Library
   Mihaly Kallay                                 : mrcc  (arbitrary order and MRCC methods)
   Jiri Pittner, Ondrej Demel                    : Mk-CCSD
   Frank Weinhold                                : gennbo (NPA and NBO analysis)
   Christopher J. Cramer and Donald G. Truhlar   : smd solvation model
   Lars Goerigk                                  : TD-DFT with DH, B97 family of functionals
   V. Asgeirsson, H. Jonsson                     : NEB implementation
   FAccTs GmbH                                   : IRC, NEB, NEB-TS, DLPNO-Multilevel, CI-OPT
                                                   MM, QMMM, 2- and 3-layer-ONIOM, Crystal-QMMM,
                                                   LR-CPCM, SF, NACMEs, symmetry and pop. for TD-DFT,
                                                   nearIR, NL-DFT gradient (VV10), updates on ESD,
                                                   ML-optimized integration grids
   S Lehtola, MJT Oliveira, MAL Marques          : LibXC Library
   Liviu Ungur et al                             : ANISO software


 Your calculation uses the libint2 library for the computation of 2-el integrals
 For citations please refer to: http://libint.valeyev.net

 Your ORCA version has been built with support for libXC version: 5.1.0
 For citations please refer to: https://tddft.org/programs/libxc/

 This ORCA versions uses:
   CBLAS   interface :  Fast vector & matrix operations
   LAPACKE interface :  Fast linear algebra routines
   SCALAPACK package :  Parallel linear algebra routines
   Shared memory     :  Shared parallel matrices
   BLAS/LAPACK       :  OpenBLAS 0.3.15  USE64BITINT DYNAMIC_ARCH NO_AFFINITY Haswell SINGLE_THREADED
        Core in use  :  Haswell
   Copyright (c) 2011-2014, The OpenBLAS Project




***************************************
The coordinates will be read from file: TMS.xyz
***************************************


Your calculation utilizes the geometrical counterpoise correction gCP
Please cite in your paper:
H.Kruse, S. Grimme J.Chem.Phys., 136, (2012), 154101 
   

Your calculation utilizes the atom-pairwise dispersion correction
with the Becke-Johnson damping scheme (D3BJ)
Cite in your paper:
S.Grimme, S.Ehrlich, L.Goerigk, J Comput Chem, (2011), 32, 1456–1465 
S.Grimme, J.Antony, S.Ehrlich and H.Krieg, J.Chem.Phys., 132, (2010), 154104 
   

Your calculation employs the composite approach PBEh-3c.
Please cite in your paper:
S. Grimme, J. G. Brandenburg, C. Bannwarth, A. Hansen J.Chem.Phys., 143, (2015), 054107 
   

================================================================================

----- Orbital basis set information -----
Your calculation utilizes the basis: def2-mSVP

----- AuxJ basis set information -----
Your calculation utilizes the auxiliary basis: def2/J
   F. Weigend, Phys. Chem. Chem. Phys. 8, 1057 (2006).

================================================================================
                                        WARNINGS
                       Please study these warnings very carefully!
================================================================================

WARNING: Old DensityContainer found on disk!
         Will remove this file - 
         If you want to keep old densities, please start your calculation with a different basename. 


WARNING: Geometry Optimization
  ===> : Switching off AutoStart
         For restart on a previous wavefunction, please use MOREAD

INFO   : the flag for use of the SHARK integral package has been found!

================================================================================
                                       INPUT FILE
================================================================================
NAME = TMS.inp
|  1> ! PBEh-3c Opt
|  2> ! CPCM(Water)
|  3> *xyzfile 0 1 TMS.xyz
|  4> 
|  5> 
|  6> 
|  7> 
|  8>                          ****END OF INPUT****
================================================================================

                       *****************************
                       * Geometry Optimization Run *
                       *****************************

Geometry optimization settings:
Update method            Update   .... BFGS
Choice of coordinates    CoordSys .... Z-matrix Internals
Initial Hessian          InHess   .... Almoef's Model

Convergence Tolerances:
Energy Change            TolE     ....  5.0000e-06 Eh
Max. Gradient            TolMAXG  ....  3.0000e-04 Eh/bohr
RMS Gradient             TolRMSG  ....  1.0000e-04 Eh/bohr
Max. Displacement        TolMAXD  ....  4.0000e-03 bohr
RMS Displacement         TolRMSD  ....  2.0000e-03 bohr
Strict Convergence                ....  False
------------------------------------------------------------------------------
                        ORCA OPTIMIZATION COORDINATE SETUP
------------------------------------------------------------------------------

The optimization will be done in new redundant internal coordinates
Making redundant internal coordinates   ...  (new redundants) done
Evaluating the initial hessian          ...  (Almloef) done
Evaluating the coordinates              ...  done
Calculating the B-matrix                .... done
Calculating the G-matrix                .... done
Diagonalizing the G-matrix              .... done
The first mode is                       ....   37
The number of degrees of freedom        ....   45

    -----------------------------------------------------------------
                    Redundant Internal Coordinates


    -----------------------------------------------------------------
         Definition                    Initial Value    Approx d2E/dq
    -----------------------------------------------------------------
      1. B(C   1,Si  0)                  1.8865         0.438387   
      2. B(C   2,Si  0)                  1.8868         0.437878   
      3. B(C   3,Si  0)                  1.8865         0.438229   
      4. B(C   4,Si  0)                  1.8863         0.438673   
      5. B(H   5,C   1)                  1.0912         0.358577   
      6. B(H   6,C   1)                  1.0914         0.358296   
      7. B(H   7,C   1)                  1.0914         0.358230   
      8. B(H   8,C   2)                  1.0914         0.358279   
      9. B(H   9,C   2)                  1.0913         0.358440   
     10. B(H  10,C   2)                  1.0912         0.358457   
     11. B(H  11,C   3)                  1.0914         0.358198   
     12. B(H  12,C   3)                  1.0912         0.358520   
     13. B(H  13,C   3)                  1.0913         0.358350   
     14. B(H  14,C   4)                  1.0912         0.358528   
     15. B(H  15,C   4)                  1.0913         0.358342   
     16. B(H  16,C   4)                  1.0915         0.358105   
     17. A(C   3,Si  0,C   4)          109.4817         0.447116   
     18. A(C   1,Si  0,C   4)          109.3060         0.447145   
     19. A(C   1,Si  0,C   2)          109.5869         0.446998   
     20. A(C   2,Si  0,C   4)          109.6377         0.447051   
     21. A(C   2,Si  0,C   3)          109.3336         0.446969   
     22. A(C   1,Si  0,C   3)          109.4816         0.447063   
     23. A(Si  0,C   1,H   5)          111.5704         0.357586   
     24. A(H   6,C   1,H   7)          107.2828         0.290373   
     25. A(H   5,C   1,H   7)          107.2931         0.290408   
     26. A(Si  0,C   1,H   7)          111.6185         0.357528   
     27. A(H   5,C   1,H   6)          107.3173         0.290417   
     28. A(Si  0,C   1,H   6)          111.5089         0.357539   
     29. A(Si  0,C   2,H   9)          111.6188         0.357492   
     30. A(Si  0,C   2,H   8)          111.5611         0.357465   
     31. A(H   8,C   2,H   9)          107.2812         0.290397   
     32. A(H   9,C   2,H  10)          107.3086         0.290420   
     33. A(H   8,C   2,H  10)          107.2506         0.290399   
     34. A(Si  0,C   2,H  10)          111.5669         0.357495   
     35. A(H  12,C   3,H  13)          107.2899         0.290416   
     36. A(H  11,C   3,H  13)          107.2659         0.290376   
     37. A(Si  0,C   3,H  13)          111.6447         0.357526   
     38. A(H  11,C   3,H  12)          107.2554         0.290397   
     39. A(Si  0,C   3,H  12)          111.6293         0.357555   
     40. A(Si  0,C   3,H  11)          111.4999         0.357500   
     41. A(H  15,C   4,H  16)          107.2149         0.290363   
     42. A(H  14,C   4,H  16)          107.2864         0.290386   
     43. A(Si  0,C   4,H  16)          111.6364         0.357546   
     44. A(H  14,C   4,H  15)          107.2878         0.290416   
     45. A(Si  0,C   4,H  15)          111.5252         0.357586   
     46. A(Si  0,C   4,H  14)          111.6330         0.357618   
     47. D(H   6,C   1,Si  0,C   4)     59.8590         0.003595   
     48. D(H   7,C   1,Si  0,C   4)    -60.1189         0.003595   
     49. D(H   7,C   1,Si  0,C   3)    179.9629         0.003595   
     50. D(H   6,C   1,Si  0,C   2)   -179.9678         0.003595   
     51. D(H   5,C   1,Si  0,C   4)    179.8479         0.003595   
     52. D(H   6,C   1,Si  0,C   3)    -60.0592         0.003595   
     53. D(H   5,C   1,Si  0,C   3)     59.9297         0.003595   
     54. D(H   5,C   1,Si  0,C   2)    -59.9788         0.003595   
     55. D(H   7,C   1,Si  0,C   2)     60.0543         0.003595   
     56. D(H   9,C   2,Si  0,C   3)    178.8857         0.003590   
     57. D(H   8,C   2,Si  0,C   4)    178.8674         0.003590   
     58. D(H   8,C   2,Si  0,C   3)    -61.1024         0.003590   
     59. D(H   8,C   2,Si  0,C   1)     58.8967         0.003590   
     60. D(H   9,C   2,Si  0,C   4)     58.8555         0.003590   
     61. D(H  10,C   2,Si  0,C   4)    -61.1952         0.003590   
     62. D(H  10,C   2,Si  0,C   3)     58.8350         0.003590   
     63. D(H  10,C   2,Si  0,C   1)    178.8340         0.003590   
     64. D(H   9,C   2,Si  0,C   1)    -61.1152         0.003590   
     65. D(H  13,C   3,Si  0,C   2)   -179.6875         0.003593   
     66. D(H  13,C   3,Si  0,C   1)     60.2488         0.003593   
     67. D(H  12,C   3,Si  0,C   4)     60.5260         0.003593   
     68. D(H  12,C   3,Si  0,C   2)    -59.5999         0.003593   
     69. D(H  12,C   3,Si  0,C   1)   -179.6635         0.003593   
     70. D(H  11,C   3,Si  0,C   4)   -179.5297         0.003593   
     71. D(H  11,C   3,Si  0,C   2)     60.3444         0.003593   
     72. D(H  13,C   3,Si  0,C   4)    -59.5616         0.003593   
     73. D(H  11,C   3,Si  0,C   1)    -59.7193         0.003593   
     74. D(H  15,C   4,Si  0,C   1)    -59.7354         0.003598   
     75. D(H  14,C   4,Si  0,C   3)   -179.8119         0.003598   
     76. D(H  14,C   4,Si  0,C   2)    -59.8721         0.003598   
     77. D(H  14,C   4,Si  0,C   1)     60.2700         0.003598   
     78. D(H  16,C   4,Si  0,C   3)    -59.7320         0.003598   
     79. D(H  16,C   4,Si  0,C   2)     60.2078         0.003598   
     80. D(H  16,C   4,Si  0,C   1)   -179.6501         0.003598   
     81. D(H  15,C   4,Si  0,C   3)     60.1827         0.003598   
     82. D(H  15,C   4,Si  0,C   2)   -179.8775         0.003598   
    -----------------------------------------------------------------

Number of atoms                         .... 17
Number of degrees of freedom            .... 82

         *************************************************************
         *                GEOMETRY OPTIMIZATION CYCLE   1            *
         *************************************************************
---------------------------------
CARTESIAN COORDINATES (ANGSTROEM)
---------------------------------
  Si    -2.021649    1.206859   -0.015212
  C     -0.732782    2.580156    0.092370
  C     -3.751758    1.958344    0.028180
  C     -1.794206    0.255500   -1.628361
  C     -1.804144    0.031746    1.444182
  H     -0.823842    3.281748   -0.738348
  H      0.282011    2.179231    0.069231
  H     -0.833458    3.154736    1.014820
  H     -3.904862    2.660284   -0.793373
  H     -3.930575    2.502469    0.957048
  H     -4.524193    1.191803   -0.052912
  H     -1.905332    0.907662   -2.496451
  H     -2.527838   -0.545909   -1.729549
  H     -0.804785   -0.200759   -1.690538
  H     -1.932107    0.546573    2.397742
  H     -0.810588   -0.419713    1.450133
  H     -2.529283   -0.783590    1.415918

----------------------------
CARTESIAN COORDINATES (A.U.)
----------------------------
  NO LB      ZA    FRAG     MASS         X           Y           Z
   0 Si   14.0000    0    28.086   -3.820363    2.280634   -0.028746
   1 C     6.0000    0    12.011   -1.384757    4.875789    0.174554
   2 C     6.0000    0    12.011   -7.089796    3.700733    0.053252
   3 C     6.0000    0    12.011   -3.390558    0.482826   -3.077157
   4 C     6.0000    0    12.011   -3.409338    0.059992    2.729108
   5 H     1.0000    0     1.008   -1.556835    6.201605   -1.395275
   6 H     1.0000    0     1.008    0.532924    4.118149    0.130828
   7 H     1.0000    0     1.008   -1.575007    5.961587    1.917733
   8 H     1.0000    0     1.008   -7.379120    5.027208   -1.499258
   9 H     1.0000    0     1.008   -7.427710    4.728980    1.808559
  10 H     1.0000    0     1.008   -8.549485    2.252181   -0.099989
  11 H     1.0000    0     1.008   -3.600556    1.715232   -4.717609
  12 H     1.0000    0     1.008   -4.776921   -1.031618   -3.268374
  13 H     1.0000    0     1.008   -1.520823   -0.379380   -3.194654
  14 H     1.0000    0     1.008   -3.651153    1.032874    4.531075
  15 H     1.0000    0     1.008   -1.531789   -0.793142    2.740355
  16 H     1.0000    0     1.008   -4.779652   -1.480771    2.675697

--------------------------------
INTERNAL COORDINATES (ANGSTROEM)
--------------------------------
 Si     0   0   0     0.000000000000     0.00000000     0.00000000
 C      1   0   0     1.886450764582     0.00000000     0.00000000
 C      1   2   0     1.886767026412   109.58686388     0.00000000
 C      1   2   3     1.886548741787   109.48157787   119.90859155
 C      1   2   3     1.886273369650   109.30598239   239.82674585
 H      2   1   3     1.091153388911   111.57035366   300.02115117
 H      2   1   3     1.091367078949   111.50891113   180.03221972
 H      2   1   3     1.091417353121   111.61845131    60.05430527
 H      3   1   2     1.091379712547   111.56113974    58.89668230
 H      3   1   2     1.091257985721   111.61879952   298.88479895
 H      3   1   2     1.091244995604   111.56686960   178.83403568
 H      4   1   2     1.091441380595   111.49992570   300.28073491
 H      4   1   2     1.091197151467   111.62932534   180.33646506
 H      4   1   2     1.091325946220   111.64474327    60.24883838
 H      5   1   2     1.091191296479   111.63298351    60.26997900
 H      5   1   2     1.091331866571   111.52524040   300.26464964
 H      5   1   2     1.091512279251   111.63639822   180.34989019

---------------------------
INTERNAL COORDINATES (A.U.)
---------------------------
 Si     0   0   0     0.000000000000     0.00000000     0.00000000
 C      1   0   0     3.564875310186     0.00000000     0.00000000
 C      1   2   0     3.565472958432   109.58686388     0.00000000
 C      1   2   3     3.565060460271   109.48157787   119.90859155
 C      1   2   3     3.564540082347   109.30598239   239.82674585
 H      2   1   3     2.061981075143   111.57035366   300.02115117
 H      2   1   3     2.062384890792   111.50891113   180.03221972
 H      2   1   3     2.062479895208   111.61845131    60.05430527
 H      3   1   2     2.062408764831   111.56113974    58.89668230
 H      3   1   2     2.062178734467   111.61879952   298.88479895
 H      3   1   2     2.062154186704   111.56686960   178.83403568
 H      4   1   2     2.062525300553   111.49992570   300.28073491
 H      4   1   2     2.062063774388   111.62932534   180.33646506
 H      4   1   2     2.062307161198   111.64474327    60.24883838
 H      5   1   2     2.062052710064   111.63298351    60.26997900
 H      5   1   2     2.062318349040   111.52524040   300.26464964
 H      5   1   2     2.062659279597   111.63639822   180.34989019

---------------------
BASIS SET INFORMATION
---------------------
There are 3 groups of distinct atoms

 Group   1 Type Si  : 10s7p1d contracted to 4s3p1d pattern {5311/511/1}
 Group   2 Type C   : 8s4p1d contracted to 4s2p1d pattern {5111/31/1}
 Group   3 Type H   : 4s contracted to 2s pattern {31}

Atom   0Si   basis set group =>   1
Atom   1C    basis set group =>   2
Atom   2C    basis set group =>   2
Atom   3C    basis set group =>   2
Atom   4C    basis set group =>   2
Atom   5H    basis set group =>   3
Atom   6H    basis set group =>   3
Atom   7H    basis set group =>   3
Atom   8H    basis set group =>   3
Atom   9H    basis set group =>   3
Atom  10H    basis set group =>   3
Atom  11H    basis set group =>   3
Atom  12H    basis set group =>   3
Atom  13H    basis set group =>   3
Atom  14H    basis set group =>   3
Atom  15H    basis set group =>   3
Atom  16H    basis set group =>   3
---------------------------------
AUXILIARY/J BASIS SET INFORMATION
---------------------------------
There are 3 groups of distinct atoms

 Group   1 Type Si  : 14s5p5d2f1g contracted to 8s4p3d1f1g pattern {71111111/2111/311/2/1}
 Group   2 Type C   : 12s5p4d2f1g contracted to 6s4p3d1f1g pattern {711111/2111/211/2/1}
 Group   3 Type H   : 5s2p1d contracted to 3s1p1d pattern {311/2/1}

Atom   0Si   basis set group =>   1
Atom   1C    basis set group =>   2
Atom   2C    basis set group =>   2
Atom   3C    basis set group =>   2
Atom   4C    basis set group =>   2
Atom   5H    basis set group =>   3
Atom   6H    basis set group =>   3
Atom   7H    basis set group =>   3
Atom   8H    basis set group =>   3
Atom   9H    basis set group =>   3
Atom  10H    basis set group =>   3
Atom  11H    basis set group =>   3
Atom  12H    basis set group =>   3
Atom  13H    basis set group =>   3
Atom  14H    basis set group =>   3
Atom  15H    basis set group =>   3
Atom  16H    basis set group =>   3
------------------------------------------------------------------------------
                           ORCA GTO INTEGRAL CALCULATION
                           -- RI-GTO INTEGRALS CHOSEN --
------------------------------------------------------------------------------
------------------------------------------------------------------------------
                   ___                                                        
                  /   \      - P O W E R E D   B Y -                         
                 /     \                                                     
                 |  |  |   _    _      __       _____    __    __             
                 |  |  |  | |  | |    /  \     |  _  \  |  |  /  |          
                  \  \/   | |  | |   /    \    | | | |  |  | /  /          
                 / \  \   | |__| |  /  /\  \   | |_| |  |  |/  /          
                |  |  |   |  __  | /  /__\  \  |    /   |      \           
                |  |  |   | |  | | |   __   |  |    \   |  |\   \          
                \     /   | |  | | |  |  |  |  | |\  \  |  | \   \       
                 \___/    |_|  |_| |__|  |__|  |_| \__\ |__|  \__/        
                                                                              
                      - O R C A' S   B I G   F R I E N D -                    
                                      &                                       
                       - I N T E G R A L  F E E D E R -                       
                                                                              
 v1 FN, 2020, v2 2021                                                         
------------------------------------------------------------------------------


Reading SHARK input file TMS.SHARKINP.tmp ... ok
----------------------
SHARK INTEGRAL PACKAGE
----------------------

Number of atoms                             ...     17
Number of basis functions                   ...    102
Number of shells                            ...     60
Maximum angular momentum                    ...      2
Integral batch strategy                     ... SHARK/LIBINT Hybrid
RI-J (if used) integral strategy            ... SPLIT-RIJ (Revised 2003 algorithm where possible)
Printlevel                                  ...      1
Contraction scheme used                     ... SEGMENTED contraction
Coulomb Range Separation                    ... NOT USED
Exchange Range Separation                   ... NOT USED
Finite Nucleus Model                        ... NOT USED
Auxiliary Coulomb fitting basis             ... AVAILABLE
   # of basis functions in Aux-J            ...    379
   # of shells in Aux-J                     ...    137
   Maximum angular momentum in Aux-J        ...      4
Auxiliary J/K fitting basis                 ... NOT available
Auxiliary Correlation fitting basis         ... NOT available
Auxiliary 'external' fitting basis          ... NOT available
Integral threshold                          ...     2.500000e-11
Primitive cut-off                           ...     2.500000e-12
Primitive pair pre-selection threshold      ...     2.500000e-12

Calculating pre-screening integrals         ... done (  0.0 sec) Dimension = 60
Organizing shell pair data                  ... done (  0.0 sec)
Shell pair information
Total number of shell pairs                 ...      1830
Shell pairs after pre-screening             ...      1768
Total number of primitive shell pairs       ...      7132
Primitive shell pairs kept                  ...      4954
          la=0 lb=0:    928 shell pairs
          la=1 lb=0:    484 shell pairs
          la=1 lb=1:     66 shell pairs
          la=2 lb=0:    220 shell pairs
          la=2 lb=1:     55 shell pairs
          la=2 lb=2:     15 shell pairs

Calculating one electron integrals          ... done (  0.0 sec)
Calculating RI/J V-Matrix + Cholesky decomp.... done (  0.0 sec)
Calculating Nuclear repulsion               ... done (  0.0 sec) ENN=    245.288212582505 Eh

SHARK setup successfully completed in   0.1 seconds

Maximum memory used throughout the entire GTOINT-calculation: 11.8 MB
-------------------------------------------------------------------------------
                                 ORCA SCF
-------------------------------------------------------------------------------

------------
SCF SETTINGS
------------
Hamiltonian:
 Density Functional     Method          .... DFT(GTOs)
 Exchange Functional    Exchange        .... PBE
   PBE kappa parameter   XKappa         ....  1.024500
   PBE mue parameter    XMuePBE         ....  0.123457
 Correlation Functional Correlation     .... PBE
   PBE beta parameter  CBetaPBE         ....  0.030000
 LDA part of GGA corr.  LDAOpt          .... PW91-LDA
 Gradients option       PostSCFGGA      .... off
 Hybrid DFT is turned on
   Fraction HF Exchange ScalHFX         ....  0.420000
   Scaling of DF-GGA-X  ScalDFX         ....  0.580000
   Scaling of DF-GGA-C  ScalDFC         ....  1.000000
   Scaling of DF-LDA-C  ScalLDAC        ....  1.000000
   Perturbative correction              ....  0.000000
   Density functional embedding theory  .... OFF
 RI-approximation to the Coulomb term is turned on
   Number of AuxJ basis functions       .... 379
   RIJ-ON(X) (HFX calculated with O(N)) .... on
   Number of AuxJ basis functions       .... 379
   RIJ-COSX (HFX calculated with COS-X)).... on


General Settings:
 Integral files         IntName         .... TMS
 Hartree-Fock type      HFTyp           .... RHF
 Total Charge           Charge          ....    0
 Multiplicity           Mult            ....    1
 Number of Electrons    NEL             ....   50
 Basis Dimension        Dim             ....  102
 Nuclear Repulsion      ENuc            ....    245.2882125825 Eh

Convergence Acceleration:
 DIIS                   CNVDIIS         .... on
   Start iteration      DIISMaxIt       ....    12
   Startup error        DIISStart       ....  0.200000
   # of expansion vecs  DIISMaxEq       ....     5
   Bias factor          DIISBfac        ....   1.050
   Max. coefficient     DIISMaxC        ....  10.000
 Trust-Rad. Augm. Hess. CNVTRAH         .... auto
   Auto Start mean grad. ratio tolernc. ....  1.125000
   Auto Start start iteration           ....    20
   Auto Start num. interpolation iter.  ....    10
   Max. Number of Micro iterations      ....    16
   Max. Number of Macro iterations      .... Maxiter - #DIIS iter
   Number of Davidson start vectors     ....     2
   Converg. threshold I  (grad. norm)   ....   1.000e-05
   Converg. threshold II (energy diff.) ....   1.000e-08
   Grad. Scal. Fac. for Micro threshold ....   0.100
   Minimum threshold for Micro iter.    ....   0.010
   NR start threshold (gradient norm)   ....   0.001
   Initial trust radius                 ....   0.400
   Minimum AH scaling param. (alpha)    ....   1.000
   Maximum AH scaling param. (alpha)    .... 1000.000
   Orbital update algorithm             .... Taylor
   White noise on init. David. guess    .... on
   Maximum white noise                  ....   0.010
   Quad. conv. algorithm                .... NR
   COSX micro iterations for RIJONX calc.... off
 SOSCF                  CNVSOSCF        .... on
   Start iteration      SOSCFMaxIt      ....   150
   Startup grad/error   SOSCFStart      ....  0.003300
 Level Shifting         CNVShift        .... on
   Level shift para.    LevelShift      ....    0.2500
   Turn off err/grad.   ShiftErr        ....    0.0010
 Zerner damping         CNVZerner       .... off
 Static damping         CNVDamp         .... on
   Fraction old density DampFac         ....    0.7000
   Max. Damping (<1)    DampMax         ....    0.9800
   Min. Damping (>=0)   DampMin         ....    0.0000
   Turn off err/grad.   DampErr         ....    0.1000
 Fernandez-Rico         CNVRico         .... off

SCF Procedure:
 Maximum # iterations   MaxIter         ....   125
 SCF integral mode      SCFMode         .... Direct
   Integral package                     .... SHARK and LIBINT hybrid scheme
 Reset frequency        DirectResetFreq ....    20
 Integral Threshold     Thresh          ....  2.500e-11 Eh
 Primitive CutOff       TCut            ....  2.500e-12 Eh

Convergence Tolerance:
 Convergence Check Mode ConvCheckMode   .... Total+1el-Energy
 Convergence forced     ConvForced      .... 0
 Energy Change          TolE            ....  1.000e-08 Eh
 1-El. energy change                    ....  1.000e-05 Eh
 Orbital Gradient       TolG            ....  1.000e-05
 Orbital Rotation angle TolX            ....  1.000e-05
 DIIS Error             TolErr          ....  5.000e-07


Diagonalization of the overlap matrix:
Smallest eigenvalue                        ... 6.369e-03
Time for diagonalization                   ...    0.001 sec
Threshold for overlap eigenvalues          ... 1.000e-08
Number of eigenvalues below threshold      ... 0
Time for construction of square roots      ...    0.000 sec
Total time needed                          ...    0.002 sec

--------------------------------
INITIAL GUESS: MINIMAL BASIS EHT
--------------------------------
The minimal basis has 41 functions
EHT matrix was diagonalized
Basis set overlap was calculated now projecting the orbitals
Using GuessMode=FMatrix for the initial guess
C*T matrix was formed
Effective Fockian was calculated
Effective Fockian was diagonalized
Initial density was built
                      ------------------
                      INITIAL GUESS DONE
                      ------------------
-------------------
DFT GRID GENERATION
-------------------

General Integration Accuracy     IntAcc      ... 4.159
Radial Grid Type                 RadialGrid  ... OptM3 with GC (2021)
Angular Grid (max. ang.)         AngularGrid ... 3 (Lebedev-194)
Angular grid pruning method      GridPruning ... 4 (adaptive)
Weight generation scheme         WeightScheme... Becke
Basis function cutoff            BFCut       ... 1.0000e-11
Integration weight cutoff        WCut        ... 1.0000e-14
Angular grids for H and He will be reduced by one unit
Partially contracted basis set               ... off
Rotationally invariant grid construction     ... off

Total number of grid points                  ...    34175
Total number of batches                      ...      541
Average number of points per batch           ...       63
Average number of grid points per atom       ...     2010
Time for grid setup =    0.225 sec

--------------------
COSX GRID GENERATION
--------------------

GRIDX 1
-------
General Integration Accuracy     IntAcc      ... 3.816
Radial Grid Type                 RadialGrid  ... OptM3 with GC (2021)
Angular Grid (max. ang.)         AngularGrid ... 1 (Lebedev-50)
Angular grid pruning method      GridPruning ... 4 (adaptive)
Weight generation scheme         WeightScheme... Becke
Basis function cutoff            BFCut       ... 1.0000e-11
Integration weight cutoff        WCut        ... 1.0000e-14
Angular grids for H and He will be reduced by one unit
Partially contracted basis set               ... on
Rotationally invariant grid construction     ... off

Total number of grid points                  ...     8955
Total number of batches                      ...      150
Average number of points per batch           ...       59
Average number of grid points per atom       ...      527
UseSFitting                                  ... on

GRIDX 2
-------
General Integration Accuracy     IntAcc      ... 4.020
Radial Grid Type                 RadialGrid  ... OptM3 with GC (2021)
Angular Grid (max. ang.)         AngularGrid ... 2 (Lebedev-110)
Angular grid pruning method      GridPruning ... 4 (adaptive)
Weight generation scheme         WeightScheme... Becke
Basis function cutoff            BFCut       ... 1.0000e-11
Integration weight cutoff        WCut        ... 1.0000e-14
Angular grids for H and He will be reduced by one unit
Partially contracted basis set               ... on
Rotationally invariant grid construction     ... off

Total number of grid points                  ...    18332
Total number of batches                      ...      296
Average number of points per batch           ...       61
Average number of grid points per atom       ...     1078
UseSFitting                                  ... on

GRIDX 3
-------
General Integration Accuracy     IntAcc      ... 4.338
Radial Grid Type                 RadialGrid  ... OptM3 with GC (2021)
Angular Grid (max. ang.)         AngularGrid ... 3 (Lebedev-194)
Angular grid pruning method      GridPruning ... 4 (adaptive)
Weight generation scheme         WeightScheme... Becke
Basis function cutoff            BFCut       ... 1.0000e-11
Integration weight cutoff        WCut        ... 1.0000e-14
Angular grids for H and He will be reduced by one unit
Partially contracted basis set               ... on
Rotationally invariant grid construction     ... off

Total number of grid points                  ...    40479
Total number of batches                      ...      643
Average number of points per batch           ...       62
Average number of grid points per atom       ...     2381
UseSFitting                                  ... on

Time for X-Grid setup             =    0.632 sec


--------------------
CPCM SOLVATION MODEL
--------------------
CPCM parameters:
  Epsilon                                         ...      80.4000
  Refrac                                          ...       1.3300
  Rsolv                                           ...       1.3000
  Surface type                                    ... GAUSSIAN VDW
  Epsilon function type                           ...         CPCM
Radii:
 Radius for Si used is    4.7621 Bohr (=   2.5200 Ang.)
 Radius for C  used is    3.8550 Bohr (=   2.0400 Ang.)
 Radius for H  used is    2.4944 Bohr (=   1.3200 Ang.)
Calculating surface                               ...        done! (  0.0s)
GEPOL surface points                              ...          999
GEPOL Volume                                      ...     943.4354
GEPOL Surface-area                                ...     547.7542
Calculating surface distance matrix               ...        done! (  0.0s)
Performing Cholesky decomposition & store         ...        done! (  0.0s)
Overall time for CPCM initialization              ...                 0.0s
--------------
SCF ITERATIONS
--------------
ITER       Energy         Delta-E        Max-DP      RMS-DP      [F,P]     Damp
               ***  Starting incremental Fock matrix formation  ***
  0   -447.9210899357   0.000000000000 0.05766660  0.00319363  0.3864532 0.7000
  1   -448.0926959177  -0.171605982010 0.04067565  0.00234158  0.2692004 0.7000
                               ***Turning on DIIS***
  2   -448.2118369579  -0.119141040240 0.03065095  0.00168639  0.1868502 0.7000
  3   -448.2951783779  -0.083341419938 0.02586336  0.00125734  0.1301044 0.7000
  4   -448.3538310452  -0.058652667364 0.06232340  0.00311476  0.0914002 0.0000
                      *** Initiating the SOSCF procedure ***
                           *** Shutting down DIIS ***
                      *** Re-Reading the Fockian *** 
                      *** Removing any level shift *** 
ITER      Energy       Delta-E        Grad      Rot      Max-DP    RMS-DP
  5   -448.49248830  -0.1386572572  0.001856  0.001856  0.003575  0.000173
               *** Restarting incremental Fock matrix formation ***
  6   -448.49264146  -0.0001531564  0.000450  0.000938  0.002628  0.000105
  7   -448.49265068  -0.0000092202  0.000306  0.000277  0.000735  0.000035
  8   -448.49265342  -0.0000027381  0.000044  0.000057  0.000283  0.000009
  9   -448.49265347  -0.0000000548  0.000018  0.000018  0.000095  0.000002
 10   -448.49265347   0.0000000000  0.000005  0.000004  0.000017  0.000001
                  ***Gradient check signals convergence***
              ***Rediagonalizing the Fockian in SOSCF/NRSCF***

               *****************************************************
               *                     SUCCESS                       *
               *           SCF CONVERGED AFTER  11 CYCLES          *
               *****************************************************

Old exchange energy                            =    -19.063672665 Eh
New exchange energy                            =    -19.063701859 Eh
Exchange energy change after final integration =     -0.000029194 Eh
Total energy after final integration           =   -448.492682658 Eh
Final COS-X integration done in                =     2.829 sec

----------------
TOTAL SCF ENERGY
----------------

Total Energy       :         -448.49268266 Eh          -12204.10634 eV

Components:
Nuclear Repulsion  :          245.28821258 Eh            6674.63160 eV
Electronic Energy  :         -693.78089524 Eh          -18878.73794 eV
One Electron Energy:        -1101.49532571 Eh          -29973.21162 eV
Two Electron Energy:          407.71443047 Eh           11094.47369 eV
Max COSX asymmetry :            0.00000407 Eh               0.00011 eV
CPCM Dielectric    :           -0.00224085 Eh              -0.06098 eV

Virial components:
Potential Energy   :         -894.95661383 Eh          -24353.00755 eV
Kinetic Energy     :          446.46393117 Eh           12148.90121 eV
Virial Ratio       :            2.00454404


DFT components:
N(Alpha)           :       25.000054071841 electrons
N(Beta)            :       25.000054071841 electrons
N(Total)           :       50.000108143682 electrons
E(X)               :      -25.305886460754 Eh       
E(C)               :       -2.197663391754 Eh       
E(XC)              :      -27.503549852508 Eh       
DFET-embed. en.    :        0.000000000000 Eh       
CPCM Solvation Model Properties:
Surface-charge          :           -0.02187543
Charge-correction       :            0.00005152 Eh               0.00140 eV
Free-energy (cav+disp)  :  This term is not implemented in the current solvation scheme

---------------
SCF CONVERGENCE
---------------

  Last Energy change         ...    7.2228e-09  Tolerance :   1.0000e-08
  Last MAX-Density change    ...    2.4425e-15  Tolerance :   1.0000e-07
  Last RMS-Density change    ...    5.2832e-17  Tolerance :   5.0000e-09
  Last Orbital Gradient      ...    3.0184e-07  Tolerance :   1.0000e-05
  Last Orbital Rotation      ...    3.5342e-07  Tolerance :   1.0000e-05

             **** THE GBW FILE WAS UPDATED (TMS.gbw) ****
             **** DENSITY TMS.scfp WAS UPDATED ****
             **** ENERGY FILE WAS UPDATED (TMS.en.tmp) ****
             **** THE GBW FILE WAS UPDATED (TMS.gbw) ****
             **** DENSITY TMS.scfp WAS UPDATED ****
----------------
ORBITAL ENERGIES
----------------

  NO   OCC          E(Eh)            E(eV) 
   0   2.0000     -66.716909     -1815.4594 
   1   2.0000     -10.403580      -283.0958 
   2   2.0000     -10.403505      -283.0938 
   3   2.0000     -10.403475      -283.0930 
   4   2.0000     -10.403456      -283.0924 
   5   2.0000      -5.488928      -149.3613 
   6   2.0000      -3.780375      -102.8692 
   7   2.0000      -3.780361      -102.8689 
   8   2.0000      -3.780345      -102.8684 
   9   2.0000      -0.796816       -21.6825 
  10   2.0000      -0.751344       -20.4451 
  11   2.0000      -0.751180       -20.4407 
  12   2.0000      -0.751168       -20.4403 
  13   2.0000      -0.511535       -13.9196 
  14   2.0000      -0.461239       -12.5510 
  15   2.0000      -0.461169       -12.5490 
  16   2.0000      -0.461123       -12.5478 
  17   2.0000      -0.444814       -12.1040 
  18   2.0000      -0.444643       -12.0993 
  19   2.0000      -0.425524       -11.5791 
  20   2.0000      -0.425472       -11.5777 
  21   2.0000      -0.425445       -11.5770 
  22   2.0000      -0.337750        -9.1907 
  23   2.0000      -0.337538        -9.1849 
  24   2.0000      -0.337459        -9.1827 
  25   0.0000       0.117494         3.1972 
  26   0.0000       0.141601         3.8532 
  27   0.0000       0.141712         3.8562 
  28   0.0000       0.142232         3.8703 
  29   0.0000       0.178934         4.8690 
  30   0.0000       0.178996         4.8707 
  31   0.0000       0.201526         5.4838 
  32   0.0000       0.201804         5.4914 
  33   0.0000       0.201846         5.4925 
  34   0.0000       0.244503         6.6533 
  35   0.0000       0.248199         6.7538 
  36   0.0000       0.248427         6.7601 
  37   0.0000       0.248497         6.7619 
  38   0.0000       0.261783         7.1235 
  39   0.0000       0.261819         7.1244 
  40   0.0000       0.262021         7.1299 
  41   0.0000       0.468032        12.7358 
  42   0.0000       0.468066        12.7367 
  43   0.0000       0.468076        12.7370 
  44   0.0000       0.470531        12.8038 
  45   0.0000       0.480698        13.0805 
  46   0.0000       0.480951        13.0874 
  47   0.0000       0.597863        16.2687 
  48   0.0000       0.597874        16.2690 
  49   0.0000       0.597908        16.2699 
  50   0.0000       0.622605        16.9419 
  51   0.0000       0.658590        17.9211 
  52   0.0000       0.659159        17.9366 
  53   0.0000       0.659433        17.9441 
  54   0.0000       0.674039        18.3415 
  55   0.0000       0.674107        18.3434 
  56   0.0000       0.735460        20.0129 
  57   0.0000       0.736598        20.0439 
  58   0.0000       0.736876        20.0514 
  59   0.0000       0.948690        25.8152 
  60   0.0000       0.949235        25.8300 
  61   0.0000       0.949254        25.8305 
  62   0.0000       1.027111        27.9491 
  63   0.0000       1.027153        27.9503 
  64   0.0000       1.027582        27.9619 
  65   0.0000       1.043065        28.3832 
  66   0.0000       1.043135        28.3851 
  67   0.0000       1.043715        28.4009 
  68   0.0000       1.060009        28.8443 
  69   0.0000       1.096617        29.8405 
  70   0.0000       1.096764        29.8445 
  71   0.0000       1.132775        30.8244 
  72   0.0000       1.133259        30.8375 
  73   0.0000       1.133321        30.8392 
  74   0.0000       1.319563        35.9071 
  75   0.0000       1.321204        35.9518 
  76   0.0000       1.321343        35.9556 
  77   0.0000       1.491759        40.5928 
  78   0.0000       1.734847        47.2076 
  79   0.0000       1.734875        47.2083 
  80   0.0000       1.734935        47.2100 
  81   0.0000       1.871171        50.9171 
  82   0.0000       1.871311        50.9210 
  83   0.0000       1.926106        52.4120 
  84   0.0000       1.926850        52.4323 
  85   0.0000       1.927297        52.4444 
  86   0.0000       2.103415        57.2368 
  87   0.0000       2.256647        61.4065 
  88   0.0000       2.256796        61.4105 
  89   0.0000       2.256962        61.4151 
  90   0.0000       2.351639        63.9914 
  91   0.0000       2.351784        63.9953 
  92   0.0000       2.351994        64.0010 
  93   0.0000       2.353728        64.0482 
  94   0.0000       2.353759        64.0490 
  95   0.0000       2.354011        64.0559 
  96   0.0000       2.393990        65.1438 
  97   0.0000       2.394305        65.1524 
  98   0.0000      13.723048       373.4231 
  99   0.0000      13.764965       374.5637 
 100   0.0000      13.766029       374.5927 
 101   0.0000      13.766083       374.5942 

                    ********************************
                    * MULLIKEN POPULATION ANALYSIS *
                    ********************************

-----------------------
MULLIKEN ATOMIC CHARGES
-----------------------
   0 Si:    1.039710
   1 C :   -0.971252
   2 C :   -0.970912
   3 C :   -0.970875
   4 C :   -0.970990
   5 H :    0.236989
   6 H :    0.237095
   7 H :    0.237141
   8 H :    0.237008
   9 H :    0.236980
  10 H :    0.237149
  11 H :    0.236800
  12 H :    0.237133
  13 H :    0.236966
  14 H :    0.237131
  15 H :    0.237122
  16 H :    0.236803
Sum of atomic charges:    0.0000000

--------------------------------
MULLIKEN REDUCED ORBITAL CHARGES
--------------------------------
  0 Sis       :     4.938057  s :     4.938057
      pz      :     2.580672  p :     7.741639
      px      :     2.580515
      py      :     2.580452
      dz2     :     0.064882  d :     0.280594
      dxz     :     0.025204
      dyz     :     0.075383
      dx2y2   :     0.043577
      dxy     :     0.071548
  1 C s       :     3.430941  s :     3.430941
      pz      :     1.138055  p :     3.515434
      px      :     1.185619
      py      :     1.191760
      dz2     :     0.005641  d :     0.024876
      dxz     :     0.000410
      dyz     :     0.010317
      dx2y2   :     0.004953
      dxy     :     0.003556
  2 C s       :     3.431028  s :     3.431028
      pz      :     1.137673  p :     3.515008
      px      :     1.223412
      py      :     1.153923
      dz2     :     0.005608  d :     0.024876
      dxz     :     0.001179
      dyz     :     0.009606
      dx2y2   :     0.001799
      dxy     :     0.006685
  3 C s       :     3.430970  s :     3.430970
      pz      :     1.212441  p :     3.515025
      px      :     1.139322
      py      :     1.163263
      dz2     :     0.005926  d :     0.024879
      dxz     :     0.000660
      dyz     :     0.006015
      dx2y2   :     0.003207
      dxy     :     0.009072
  4 C s       :     3.430894  s :     3.430894
      pz      :     1.198873  p :     3.515219
      px      :     1.139025
      py      :     1.177322
      dz2     :     0.007569  d :     0.024876
      dxz     :     0.000514
      dyz     :     0.004652
      dx2y2   :     0.002982
      dxy     :     0.009159
  5 H s       :     0.763011  s :     0.763011
  6 H s       :     0.762905  s :     0.762905
  7 H s       :     0.762859  s :     0.762859
  8 H s       :     0.762992  s :     0.762992
  9 H s       :     0.763020  s :     0.763020
 10 H s       :     0.762851  s :     0.762851
 11 H s       :     0.763200  s :     0.763200
 12 H s       :     0.762867  s :     0.762867
 13 H s       :     0.763034  s :     0.763034
 14 H s       :     0.762869  s :     0.762869
 15 H s       :     0.762878  s :     0.762878
 16 H s       :     0.763197  s :     0.763197


                     *******************************
                     * LOEWDIN POPULATION ANALYSIS *
                     *******************************

----------------------
LOEWDIN ATOMIC CHARGES
----------------------
   0 Si:    0.584752
   1 C :   -0.579724
   2 C :   -0.579604
   3 C :   -0.579586
   4 C :   -0.579583
   5 H :    0.144388
   6 H :    0.144567
   7 H :    0.144554
   8 H :    0.144513
   9 H :    0.144415
  10 H :    0.144571
  11 H :    0.144432
  12 H :    0.144491
  13 H :    0.144403
  14 H :    0.144484
  15 H :    0.144577
  16 H :    0.144349

-------------------------------
LOEWDIN REDUCED ORBITAL CHARGES
-------------------------------
  0 Sis       :     4.831622  s :     4.831622
      pz      :     2.709238  p :     8.127605
      px      :     2.709275
      py      :     2.709092
      dz2     :     0.105705  d :     0.456021
      dxz     :     0.040049
      dyz     :     0.123086
      dx2y2   :     0.070454
      dxy     :     0.116727
  1 C s       :     2.999526  s :     2.999526
      pz      :     1.139637  p :     3.537640
      px      :     1.195367
      py      :     1.202635
      dz2     :     0.009537  d :     0.042558
      dxz     :     0.000673
      dyz     :     0.016793
      dx2y2   :     0.008259
      dxy     :     0.007296
  2 C s       :     2.999585  s :     2.999585
      pz      :     1.139285  p :     3.537459
      px      :     1.239917
      py      :     1.158257
      dz2     :     0.009494  d :     0.042560
      dxz     :     0.002064
      dyz     :     0.015475
      dx2y2   :     0.003749
      dxy     :     0.011778
  3 C s       :     2.999572  s :     2.999572
      pz      :     1.226977  p :     3.537448
      px      :     1.141039
      py      :     1.169432
      dz2     :     0.010492  d :     0.042567
      dxz     :     0.001238
      dyz     :     0.010960
      dx2y2   :     0.005202
      dxy     :     0.014674
  4 C s       :     2.999528  s :     2.999528
      pz      :     1.210882  p :     3.537489
      px      :     1.140880
      py      :     1.185726
      dz2     :     0.012755  d :     0.042566
      dxz     :     0.000933
      dyz     :     0.008997
      dx2y2   :     0.005002
      dxy     :     0.014879
  5 H s       :     0.855612  s :     0.855612
  6 H s       :     0.855433  s :     0.855433
  7 H s       :     0.855446  s :     0.855446
  8 H s       :     0.855487  s :     0.855487
  9 H s       :     0.855585  s :     0.855585
 10 H s       :     0.855429  s :     0.855429
 11 H s       :     0.855568  s :     0.855568
 12 H s       :     0.855509  s :     0.855509
 13 H s       :     0.855597  s :     0.855597
 14 H s       :     0.855516  s :     0.855516
 15 H s       :     0.855423  s :     0.855423
 16 H s       :     0.855651  s :     0.855651


                      *****************************
                      * MAYER POPULATION ANALYSIS *
                      *****************************

  NA   - Mulliken gross atomic population
  ZA   - Total nuclear charge
  QA   - Mulliken gross atomic charge
  VA   - Mayer's total valence
  BVA  - Mayer's bonded valence
  FA   - Mayer's free valence

  ATOM       NA         ZA         QA         VA         BVA        FA
  0 Si    12.9603    14.0000     1.0397     3.8525     3.8525     0.0000
  1 C      6.9713     6.0000    -0.9713     3.6834     3.6834     0.0000
  2 C      6.9709     6.0000    -0.9709     3.6836     3.6836     0.0000
  3 C      6.9709     6.0000    -0.9709     3.6835     3.6835     0.0000
  4 C      6.9710     6.0000    -0.9710     3.6836     3.6836     0.0000
  5 H      0.7630     1.0000     0.2370     0.9064     0.9064     0.0000
  6 H      0.7629     1.0000     0.2371     0.9064     0.9064    -0.0000
  7 H      0.7629     1.0000     0.2371     0.9064     0.9064     0.0000
  8 H      0.7630     1.0000     0.2370     0.9064     0.9064    -0.0000
  9 H      0.7630     1.0000     0.2370     0.9064     0.9064     0.0000
 10 H      0.7629     1.0000     0.2371     0.9063     0.9063    -0.0000
 11 H      0.7632     1.0000     0.2368     0.9064     0.9064     0.0000
 12 H      0.7629     1.0000     0.2371     0.9064     0.9064    -0.0000
 13 H      0.7630     1.0000     0.2370     0.9064     0.9064     0.0000
 14 H      0.7629     1.0000     0.2371     0.9064     0.9064     0.0000
 15 H      0.7629     1.0000     0.2371     0.9063     0.9063     0.0000
 16 H      0.7632     1.0000     0.2368     0.9064     0.9064     0.0000

  Mayer bond orders larger than 0.100000
B(  0-Si,  1-C ) :   0.9445 B(  0-Si,  2-C ) :   0.9444 B(  0-Si,  3-C ) :   0.9445 
B(  0-Si,  4-C ) :   0.9446 B(  1-C ,  5-H ) :   0.9100 B(  1-C ,  6-H ) :   0.9100 
B(  1-C ,  7-H ) :   0.9102 B(  2-C ,  8-H ) :   0.9101 B(  2-C ,  9-H ) :   0.9102 
B(  2-C , 10-H ) :   0.9101 B(  3-C , 11-H ) :   0.9101 B(  3-C , 12-H ) :   0.9100 
B(  3-C , 13-H ) :   0.9102 B(  4-C , 14-H ) :   0.9101 B(  4-C , 15-H ) :   0.9100 
B(  4-C , 16-H ) :   0.9103 

-------
TIMINGS
-------

Total SCF time: 0 days 0 hours 0 min 22 sec 

Total time                  ....      22.258 sec
Sum of individual times     ....      22.134 sec  ( 99.4%)

Fock matrix formation       ....      21.255 sec  ( 95.5%)
  Split-RI-J                ....       1.401 sec  (  6.6% of F)
  Chain of spheres X        ....      14.442 sec  ( 67.9% of F)
  XC integration            ....       2.444 sec  ( 11.5% of F)
    Basis function eval.    ....       1.064 sec  ( 43.5% of XC)
    Density eval.           ....       0.413 sec  ( 16.9% of XC)
    XC-Functional eval.     ....       0.392 sec  ( 16.0% of XC)
    XC-Potential eval.      ....       0.452 sec  ( 18.5% of XC)
Diagonalization             ....       0.008 sec  (  0.0%)
Density matrix formation    ....       0.001 sec  (  0.0%)
Population analysis         ....       0.002 sec  (  0.0%)
Initial guess               ....       0.005 sec  (  0.0%)
Orbital Transformation      ....       0.000 sec  (  0.0%)
Orbital Orthonormalization  ....       0.000 sec  (  0.0%)
DIIS solution               ....       0.003 sec  (  0.0%)
SOSCF solution              ....       0.004 sec  (  0.0%)
Grid generation             ....       0.857 sec  (  3.9%)

Maximum memory used throughout the entire SCF-calculation: 56.7 MB


-------------------------------------------------------------------------------
                          DFT DISPERSION CORRECTION                            
                                                                               
                              DFTD3 V3.1  Rev 1                                
                          USING Becke-Johnson damping                          
-------------------------------------------------------------------------------
The PBEh-3c composite method is recognized
Using three-body term ABC
Active option DFTDOPT                   ...         4   

molecular C6(AA) [au] = 2519.601908 


            DFT-D V3
 parameters
 s6 scaling factor         :     1.0000 
 a1 scaling factor         :     0.4860 
 s8 scaling factor         :     0.0000 
 a2 scaling factor         :     4.5000 
 Damping factor alpha9(ATM):    16.0000 
 ad hoc parameters k1-k3   :    16.0000     1.3333    -4.0000 

 Edisp/kcal,au: -4.661431846921  -0.007428463700 
 E6   /kcal   :  -4.702586054 
 E8   /kcal   :  -0.000000000 
 E6(ABC)      :   0.041154207 
 % E8         :   0.000000000 
 % E6(ABC)    :  -0.882866210 

-------------------------   ----------------
Dispersion correction           -0.007428464
-------------------------   ----------------

------------------   -----------------
gCP correction             0.013274819
------------------   -----------------

-------------------------   --------------------
FINAL SINGLE POINT ENERGY      -448.486836303171
-------------------------   --------------------

------------------------------------------------------------------------------
                         ORCA SCF GRADIENT CALCULATION
------------------------------------------------------------------------------

 ... reading COSX grid (gridx3)
Gradient of the Kohn-Sham DFT energy:
Kohn-Sham wavefunction type      ... RKS
Hartree-Fock exchange scaling    ...    0.420
Number of operators              ...    1
Number of atoms                  ...   17
Basis set dimensions             ...  102
Integral neglect threshold       ... 2.5e-11
Integral primitive cutoff        ... 2.5e-12
SHARK Integral package           ... ON

Nuc. rep. gradient       (SHARK) ... done (  0.0 sec)
HCore & Overlap gradient (SHARK) ... done (  0.1 sec)
RI-J gradient            (SHARK) ... done (  0.4 sec)
COSX-gradient                    ... done (  3.5 sec)
Exchange-correlation gradient    ... done
Dispersion correction            ... done
gCP correction                   ... done

------------------
CARTESIAN GRADIENT
------------------

   1   Si  :    0.000040431    0.000003342   -0.000030536
   2   C   :   -0.000517453   -0.000544449    0.000003006
   3   C   :    0.000688794   -0.000307271   -0.000022781
   4   C   :   -0.000093484    0.000424635    0.000633213
   5   C   :   -0.000122023    0.000442259   -0.000631893
   6   H   :    0.000399435    0.000028248    0.000496943
   7   H   :   -0.000158378    0.000541444    0.000080030
   8   H   :    0.000410031    0.000052482   -0.000366172
   9   H   :   -0.000386779   -0.000113717    0.000427150
  10   H   :   -0.000355564   -0.000088210   -0.000440873
  11   H   :   -0.000077583    0.000580685    0.000001663
  12   H   :    0.000145535   -0.000520584   -0.000023381
  13   H   :    0.000447987    0.000180204   -0.000470312
  14   H   :   -0.000401815    0.000002645   -0.000412564
  15   H   :    0.000103934   -0.000634225   -0.000090769
  16   H   :   -0.000450650   -0.000169716    0.000362821
  17   H   :    0.000394369    0.000059821    0.000309423

Difference to translation invariance:
           :    0.0000667848   -0.0000624057   -0.0001750327

Difference to rotation invariance:
           :    0.0026315920   -0.0020137551   -0.0003922563

Norm of the cartesian gradient     ...    0.0025510858
RMS gradient                       ...    0.0003572235
MAX gradient                       ...    0.0006887941

-------
TIMINGS
-------

Total SCF gradient time            ...        5.733 sec

One electron gradient       ....       0.079 sec  (  1.4%)
RI-J Coulomb gradient       ....       0.390 sec  (  6.8%)
COSX gradient               ....       3.453 sec  ( 60.2%)
XC gradient                 ....       1.162 sec  ( 20.3%)
CPCM gradient               ....       0.220 sec  (  3.8%)
   A-Matrix (El+Nuc)        ....       0.038 sec  (  0.7%)
   Potential                ....       0.182 sec  (  3.2%)

Maximum memory used throughout the entire SCFGRAD-calculation: 44.6 MB
------------------------------------------------------------------------------
                         ORCA GEOMETRY RELAXATION STEP
------------------------------------------------------------------------------

Reading the OPT-File                    .... done
Getting information on internals        .... done
Copying old internal coords+grads       .... done
Making the new internal coordinates     .... (new redundants).... done
Validating the new internal coordinates .... (new redundants).... done
Calculating the B-matrix                .... done
Calculating the G,G- and P matrices     .... done
Transforming gradient to internals      .... done
Projecting the internal gradient        .... done
Number of atoms                         ....  17
Number of internal coordinates          ....  82
Current Energy                          ....  -448.486836303 Eh
Current gradient norm                   ....     0.002551086 Eh/bohr
Maximum allowed component of the step   ....  0.300
Current trust radius                    ....  0.300
Evaluating the initial hessian          ....  (Almloef) done
Projecting the Hessian                  .... done
Forming the augmented Hessian           .... done
Diagonalizing the augmented Hessian     .... done
Last element of RFO vector              ....  0.999958074
Lowest eigenvalues of augmented Hessian:
 -0.000020750  0.003589921  0.003593357  0.003594915  0.003597715
Length of the computed step             ....  0.009157383
The final length of the internal step   ....  0.009157383
Converting the step to cartesian space:
 Initial RMS(Int)=    0.0010112638
Transforming coordinates:
 Iter   0:  RMS(Cart)=    0.0017730150 RMS(Int)=    0.6937659375
 Iter   1:  RMS(Cart)=    0.0000020756 RMS(Int)=    0.0000013867
 Iter   2:  RMS(Cart)=    0.0000000028 RMS(Int)=    0.0000000021
done
Storing new coordinates                 .... done

                                .--------------------.
          ----------------------|Geometry convergence|-------------------------
          Item                value                   Tolerance       Converged
          ---------------------------------------------------------------------
          RMS gradient        0.0002884777            0.0001000000      NO
          MAX gradient        0.0005029815            0.0003000000      NO
          RMS step            0.0010112638            0.0020000000      YES
          MAX step            0.0015640518            0.0040000000      YES
          ........................................................
          Max(Bonds)      0.0005      Max(Angles)    0.09
          Max(Dihed)        0.07      Max(Improp)    0.00
          ---------------------------------------------------------------------

The optimization has not yet converged - more geometry cycles are needed


    ---------------------------------------------------------------------------
                         Redundant Internal Coordinates
                            (Angstroem and degrees)

        Definition                    Value    dE/dq     Step     New-Value
    ----------------------------------------------------------------------------
     1. B(C   1,Si  0)                1.8865  0.000162 -0.0002    1.8863   
     2. B(C   2,Si  0)                1.8868  0.000169 -0.0002    1.8866   
     3. B(C   3,Si  0)                1.8865  0.000157 -0.0002    1.8864   
     4. B(C   4,Si  0)                1.8863  0.000161 -0.0002    1.8861   
     5. B(H   5,C   1)                1.0912 -0.000353  0.0005    1.0917   
     6. B(H   6,C   1)                1.0914 -0.000359  0.0005    1.0919   
     7. B(H   7,C   1)                1.0914 -0.000348  0.0005    1.0919   
     8. B(H   8,C   2)                1.0914 -0.000349  0.0005    1.0919   
     9. B(H   9,C   2)                1.0913 -0.000352  0.0005    1.0918   
    10. B(H  10,C   2)                1.0912 -0.000348  0.0005    1.0918   
    11. B(H  11,C   3)                1.0914 -0.000355  0.0005    1.0920   
    12. B(H  12,C   3)                1.0912 -0.000352  0.0005    1.0917   
    13. B(H  13,C   3)                1.0913 -0.000345  0.0005    1.0918   
    14. B(H  14,C   4)                1.0912 -0.000338  0.0005    1.0917   
    15. B(H  15,C   4)                1.0913 -0.000339  0.0005    1.0918   
    16. B(H  16,C   4)                1.0915 -0.000361  0.0005    1.0920   
    17. A(C   3,Si  0,C   4)          109.48 -0.000013    0.00    109.49   
    18. A(C   1,Si  0,C   4)          109.31  0.000028   -0.01    109.30   
    19. A(C   1,Si  0,C   2)          109.59 -0.000005   -0.00    109.59   
    20. A(C   2,Si  0,C   4)          109.64 -0.000025    0.01    109.65   
    21. A(C   2,Si  0,C   3)          109.33  0.000025   -0.00    109.33   
    22. A(C   1,Si  0,C   3)          109.48 -0.000010   -0.00    109.48   
    23. A(Si  0,C   1,H   5)          111.57  0.000432   -0.08    111.49   
    24. A(H   6,C   1,H   7)          107.28 -0.000486    0.09    107.37   
    25. A(H   5,C   1,H   7)          107.29 -0.000484    0.08    107.38   
    26. A(Si  0,C   1,H   7)          111.62  0.000476   -0.08    111.53   
    27. A(H   5,C   1,H   6)          107.32 -0.000469    0.09    107.40   
    28. A(Si  0,C   1,H   6)          111.51  0.000432   -0.08    111.43   
    29. A(Si  0,C   2,H   9)          111.62  0.000415   -0.07    111.54   
    30. A(Si  0,C   2,H   8)          111.56  0.000484   -0.09    111.48   
    31. A(H   8,C   2,H   9)          107.28 -0.000485    0.09    107.37   
    32. A(H   9,C   2,H  10)          107.31 -0.000464    0.08    107.39   
    33. A(H   8,C   2,H  10)          107.25 -0.000493    0.09    107.34   
    34. A(Si  0,C   2,H  10)          111.57  0.000443   -0.08    111.49   
    35. A(H  12,C   3,H  13)          107.29 -0.000489    0.09    107.38   
    36. A(H  11,C   3,H  13)          107.27 -0.000470    0.08    107.35   
    37. A(Si  0,C   3,H  13)          111.64  0.000411   -0.07    111.57   
    38. A(H  11,C   3,H  12)          107.26 -0.000503    0.09    107.34   
    39. A(Si  0,C   3,H  12)          111.63  0.000490   -0.09    111.54   
    40. A(Si  0,C   3,H  11)          111.50  0.000460   -0.08    111.42   
    41. A(H  15,C   4,H  16)          107.21 -0.000488    0.09    107.30   
    42. A(H  14,C   4,H  16)          107.29 -0.000467    0.08    107.37   
    43. A(Si  0,C   4,H  16)          111.64  0.000401   -0.07    111.57   
    44. A(H  14,C   4,H  15)          107.29 -0.000501    0.09    107.37   
    45. A(Si  0,C   4,H  15)          111.53  0.000492   -0.09    111.44   
    46. A(Si  0,C   4,H  14)          111.63  0.000461   -0.08    111.55   
    47. D(H   6,C   1,Si  0,C   4)     59.86  0.000010   -0.06     59.80   
    48. D(H   7,C   1,Si  0,C   4)    -60.12  0.000008   -0.06    -60.17   
    49. D(H   7,C   1,Si  0,C   3)    179.96  0.000014   -0.06    179.91   
    50. D(H   6,C   1,Si  0,C   2)   -179.97 -0.000006   -0.05   -180.02   
    51. D(H   5,C   1,Si  0,C   4)    179.85  0.000003   -0.05    179.79   
    52. D(H   6,C   1,Si  0,C   3)    -60.06  0.000015   -0.06    -60.12   
    53. D(H   5,C   1,Si  0,C   3)     59.93  0.000008   -0.05     59.88   
    54. D(H   5,C   1,Si  0,C   2)    -59.98 -0.000014   -0.05    -60.03   
    55. D(H   7,C   1,Si  0,C   2)     60.05 -0.000008   -0.05     60.00   
    56. D(H   9,C   2,Si  0,C   3)    178.89 -0.000007    0.01    178.90   
    57. D(H   8,C   2,Si  0,C   4)    178.87  0.000008    0.01    178.87   
    58. D(H   8,C   2,Si  0,C   3)    -61.10 -0.000008    0.01    -61.09   
    59. D(H   8,C   2,Si  0,C   1)     58.90 -0.000008    0.01     58.91   
    60. D(H   9,C   2,Si  0,C   4)     58.86  0.000010    0.00     58.86   
    61. D(H  10,C   2,Si  0,C   4)    -61.20  0.000013    0.00    -61.19   
    62. D(H  10,C   2,Si  0,C   3)     58.83 -0.000003    0.01     58.85   
    63. D(H  10,C   2,Si  0,C   1)    178.83 -0.000003    0.01    178.84   
    64. D(H   9,C   2,Si  0,C   1)    -61.12 -0.000006    0.01    -61.11   
    65. D(H  13,C   3,Si  0,C   2)   -179.69  0.000011   -0.04   -179.73   
    66. D(H  13,C   3,Si  0,C   1)     60.25  0.000008   -0.03     60.22   
    67. D(H  12,C   3,Si  0,C   4)     60.53 -0.000016   -0.03     60.50   
    68. D(H  12,C   3,Si  0,C   2)    -59.60  0.000007   -0.04    -59.64   
    69. D(H  12,C   3,Si  0,C   1)   -179.66  0.000003   -0.03   -179.70   
    70. D(H  11,C   3,Si  0,C   4)   -179.53 -0.000008   -0.03   -179.56   
    71. D(H  11,C   3,Si  0,C   2)     60.34  0.000015   -0.04     60.30   
    72. D(H  13,C   3,Si  0,C   4)    -59.56 -0.000012   -0.03    -59.59   
    73. D(H  11,C   3,Si  0,C   1)    -59.72  0.000012   -0.04    -59.75   
    74. D(H  15,C   4,Si  0,C   1)    -59.74 -0.000012    0.07    -59.67   
    75. D(H  14,C   4,Si  0,C   3)   -179.81 -0.000001    0.06   -179.76   
    76. D(H  14,C   4,Si  0,C   2)    -59.87  0.000006    0.06    -59.81   
    77. D(H  14,C   4,Si  0,C   1)     60.27  0.000002    0.06     60.33   
    78. D(H  16,C   4,Si  0,C   3)    -59.73 -0.000005    0.06    -59.68   
    79. D(H  16,C   4,Si  0,C   2)     60.21  0.000002    0.06     60.27   
    80. D(H  16,C   4,Si  0,C   1)   -179.65 -0.000002    0.06   -179.59   
    81. D(H  15,C   4,Si  0,C   3)     60.18 -0.000015    0.06     60.25   
    82. D(H  15,C   4,Si  0,C   2)   -179.88 -0.000008    0.07   -179.81   
    ----------------------------------------------------------------------------

         *************************************************************
         *                GEOMETRY OPTIMIZATION CYCLE   2            *
         *************************************************************
---------------------------------
CARTESIAN COORDINATES (ANGSTROEM)
---------------------------------
  Si    -2.021699    1.206789   -0.015173
  C     -0.732841    2.579822    0.092426
  C     -3.751539    1.958382    0.028177
  C     -1.794444    0.255674   -1.628272
  C     -1.804064    0.031792    1.444043
  H     -0.824461    3.280520   -0.739669
  H      0.281865    2.177188    0.070083
  H     -0.835334    3.154302    1.015346
  H     -3.903154    2.660260   -0.794389
  H     -3.929047    2.502583    0.957863
  H     -4.523354    1.190488   -0.052920
  H     -1.906502    0.909343   -2.495768
  H     -2.528799   -0.545984   -1.727826
  H     -0.804068   -0.199846   -1.689593
  H     -1.933239    0.548001    2.397263
  H     -0.809277   -0.418176    1.449140
  H     -2.529431   -0.783998    1.414149

----------------------------
CARTESIAN COORDINATES (A.U.)
----------------------------
  NO LB      ZA    FRAG     MASS         X           Y           Z
   0 Si   14.0000    0    28.086   -3.820458    2.280500   -0.028673
   1 C     6.0000    0    12.011   -1.384868    4.875158    0.174659
   2 C     6.0000    0    12.011   -7.089382    3.700806    0.053247
   3 C     6.0000    0    12.011   -3.391008    0.483154   -3.076988
   4 C     6.0000    0    12.011   -3.409187    0.060079    2.728845
   5 H     1.0000    0     1.008   -1.558006    6.199285   -1.397771
   6 H     1.0000    0     1.008    0.532647    4.114289    0.132438
   7 H     1.0000    0     1.008   -1.578553    5.960768    1.918726
   8 H     1.0000    0     1.008   -7.375892    5.027163   -1.501178
   9 H     1.0000    0     1.008   -7.424824    4.729196    1.810098
  10 H     1.0000    0     1.008   -8.547900    2.249697   -0.100004
  11 H     1.0000    0     1.008   -3.602767    1.718409   -4.716318
  12 H     1.0000    0     1.008   -4.778738   -1.031760   -3.265119
  13 H     1.0000    0     1.008   -1.519468   -0.377655   -3.192868
  14 H     1.0000    0     1.008   -3.653292    1.035572    4.530171
  15 H     1.0000    0     1.008   -1.529312   -0.790239    2.738478
  16 H     1.0000    0     1.008   -4.779931   -1.481541    2.672355

--------------------------------
INTERNAL COORDINATES (ANGSTROEM)
--------------------------------
 Si     0   0   0     0.000000000000     0.00000000     0.00000000
 C      1   0   0     1.886254654015     0.00000000     0.00000000
 C      1   2   0     1.886562652520   109.58589940     0.00000000
 C      1   2   3     1.886359164889   109.48025704   119.90117305
 C      1   2   3     1.886078746541   109.29918422   239.82046966
 H      2   1   3     1.091674374469   111.49320010   299.97435394
 H      2   1   3     1.091897592811   111.43221175   179.98208565
 H      2   1   3     1.091931574528   111.53342410    60.00466100
 H      3   1   2     1.091895305047   111.47520583    58.90613011
 H      3   1   2     1.091777669023   111.54471403   298.89313075
 H      3   1   2     1.091758038486   111.48758175   178.84141141
 H      4   1   2     1.091965701057   111.41762415   300.24558166
 H      4   1   2     1.091716134996   111.54225386   180.30499378
 H      4   1   2     1.091835266324   111.57159450    60.21504358
 H      5   1   2     1.091689832518   111.54987453    60.32839987
 H      5   1   2     1.091832838834   111.43782441   300.32995997
 H      5   1   2     1.092045356218   111.56541987   180.40926535

---------------------------
INTERNAL COORDINATES (A.U.)
---------------------------
 Si     0   0   0     0.000000000000     0.00000000     0.00000000
 C      1   0   0     3.564504714923     0.00000000     0.00000000
 C      1   2   0     3.565086747747   109.58589940     0.00000000
 C      1   2   3     3.564702211852   109.48025704   119.90117305
 C      1   2   3     3.564172297971   109.29918422   239.82046966
 H      2   1   3     2.062965595167   111.49320010   299.97435394
 H      2   1   3     2.063387416701   111.43221175   179.98208565
 H      2   1   3     2.063451632839   111.53342410    60.00466100
 H      3   1   2     2.063383093453   111.47520583    58.90613011
 H      3   1   2     2.063160793585   111.54471403   298.89313075
 H      3   1   2     2.063123697246   111.48758175   178.84141141
 H      4   1   2     2.063516122633   111.41762415   300.24558166
 H      4   1   2     2.063044511125   111.54225386   180.30499378
 H      4   1   2     2.063269636710   111.57159450    60.21504358
 H      5   1   2     2.062994806645   111.54987453    60.32839987
 H      5   1   2     2.063265049417   111.43782441   300.32995997
 H      5   1   2     2.063666649072   111.56541987   180.40926535

------------------------------------------------------------------------------
                   ___                                                        
                  /   \      - P O W E R E D   B Y -                         
                 /     \                                                     
                 |  |  |   _    _      __       _____    __    __             
                 |  |  |  | |  | |    /  \     |  _  \  |  |  /  |          
                  \  \/   | |  | |   /    \    | | | |  |  | /  /          
                 / \  \   | |__| |  /  /\  \   | |_| |  |  |/  /          
                |  |  |   |  __  | /  /__\  \  |    /   |      \           
                |  |  |   | |  | | |   __   |  |    \   |  |\   \          
                \     /   | |  | | |  |  |  |  | |\  \  |  | \   \       
                 \___/    |_|  |_| |__|  |__|  |_| \__\ |__|  \__/        
                                                                              
                      - O R C A' S   B I G   F R I E N D -                    
                                      &                                       
                       - I N T E G R A L  F E E D E R -                       
                                                                              
 v1 FN, 2020, v2 2021                                                         
------------------------------------------------------------------------------


Reading SHARK input file TMS.SHARKINP.tmp ... ok
----------------------
SHARK INTEGRAL PACKAGE
----------------------

Number of atoms                             ...     17
Number of basis functions                   ...    102
Number of shells                            ...     60
Maximum angular momentum                    ...      2
Integral batch strategy                     ... SHARK/LIBINT Hybrid
RI-J (if used) integral strategy            ... SPLIT-RIJ (Revised 2003 algorithm where possible)
Printlevel                                  ...      1
Contraction scheme used                     ... SEGMENTED contraction
Coulomb Range Separation                    ... NOT USED
Exchange Range Separation                   ... NOT USED
Finite Nucleus Model                        ... NOT USED
Auxiliary Coulomb fitting basis             ... AVAILABLE
   # of basis functions in Aux-J            ...    379
   # of shells in Aux-J                     ...    137
   Maximum angular momentum in Aux-J        ...      4
Auxiliary J/K fitting basis                 ... NOT available
Auxiliary Correlation fitting basis         ... NOT available
Auxiliary 'external' fitting basis          ... NOT available
Integral threshold                          ...     2.500000e-11
Primitive cut-off                           ...     2.500000e-12
Primitive pair pre-selection threshold      ...     2.500000e-12

Calculating pre-screening integrals         ... done (  0.0 sec) Dimension = 60
Organizing shell pair data                  ... done (  0.0 sec)
Shell pair information
Total number of shell pairs                 ...      1830
Shell pairs after pre-screening             ...      1768
Total number of primitive shell pairs       ...      7132
Primitive shell pairs kept                  ...      4954
          la=0 lb=0:    928 shell pairs
          la=1 lb=0:    484 shell pairs
          la=1 lb=1:     66 shell pairs
          la=2 lb=0:    220 shell pairs
          la=2 lb=1:     55 shell pairs
          la=2 lb=2:     15 shell pairs

Calculating one electron integrals          ... done (  0.0 sec)
Calculating RI/J V-Matrix + Cholesky decomp.... done (  0.0 sec)
Calculating Nuclear repulsion               ... done (  0.0 sec) ENN=    245.308530070454 Eh

SHARK setup successfully completed in   0.1 seconds

Maximum memory used throughout the entire GTOINT-calculation: 11.8 MB

Diagonalization of the overlap matrix:
[...]

----------------
TOTAL SCF ENERGY
----------------

Total Energy       :         -448.49276420 Eh          -12204.10856 eV

Components:
Nuclear Repulsion  :          245.34925827 Eh            6676.29273 eV
Electronic Energy  :         -693.84202247 Eh          -18880.40129 eV
One Electron Energy:        -1101.61670713 Eh          -29976.51458 eV
Two Electron Energy:          407.77468466 Eh           11096.11329 eV
Max COSX asymmetry :            0.00000406 Eh               0.00011 eV
CPCM Dielectric    :           -0.00229374 Eh              -0.06242 eV

Virial components:
Potential Energy   :         -894.95103513 Eh          -24352.85574 eV
Kinetic Energy     :          446.45827093 Eh           12148.74718 eV
Virial Ratio       :            2.00455696


DFT components:
N(Alpha)           :       25.000049923208 electrons
N(Beta)            :       25.000049923208 electrons
N(Total)           :       50.000099846416 electrons
E(X)               :      -25.304969850363 Eh       
E(C)               :       -2.197635523412 Eh       
E(XC)              :      -27.502605373774 Eh       
DFET-embed. en.    :        0.000000000000 Eh       
CPCM Solvation Model Properties:
Surface-charge          :           -0.02187096
Charge-correction       :            0.00005200 Eh               0.00142 eV
Free-energy (cav+disp)  :  This term is not implemented in the current solvation scheme

---------------
SCF CONVERGENCE
---------------

  Last Energy change         ...   -4.2536e-09  Tolerance :   1.0000e-08
  Last MAX-Density change    ...    3.9968e-15  Tolerance :   1.0000e-07
  Last RMS-Density change    ...    7.6358e-17  Tolerance :   5.0000e-09
  Last Orbital Gradient      ...    2.6912e-07  Tolerance :   1.0000e-05
  Last Orbital Rotation      ...    3.5952e-07  Tolerance :   1.0000e-05

             **** THE GBW FILE WAS UPDATED (TMS.gbw) ****
             **** DENSITY TMS.scfp WAS UPDATED ****
             **** ENERGY FILE WAS UPDATED (TMS.en.tmp) ****
             **** THE GBW FILE WAS UPDATED (TMS.gbw) ****
             **** DENSITY TMS.scfp WAS UPDATED ****
----------------
ORBITAL ENERGIES
----------------

  NO   OCC          E(Eh)            E(eV) 
   0   2.0000     -66.716475     -1815.4476 
   1   2.0000     -10.403707      -283.0993 
   2   2.0000     -10.403617      -283.0968 
   3   2.0000     -10.403601      -283.0964 
   4   2.0000     -10.403578      -283.0958 
   5   2.0000      -5.488543      -149.3508 
   6   2.0000      -3.779986      -102.8586 
   7   2.0000      -3.779971      -102.8582 
   8   2.0000      -3.779954      -102.8578 
   9   2.0000      -0.796812       -21.6824 
  10   2.0000      -0.751109       -20.4387 
  11   2.0000      -0.750918       -20.4335 
  12   2.0000      -0.750905       -20.4332 
  13   2.0000      -0.510672       -13.8961 
  14   2.0000      -0.461569       -12.5599 
  15   2.0000      -0.461479       -12.5575 
  16   2.0000      -0.461433       -12.5562 
  17   2.0000      -0.445141       -12.1129 
  18   2.0000      -0.444956       -12.1079 
  19   2.0000      -0.425795       -11.5865 
  20   2.0000      -0.425761       -11.5855 
  21   2.0000      -0.425721       -11.5845 
  22   2.0000      -0.337098        -9.1729 
  23   2.0000      -0.336869        -9.1667 
  24   2.0000      -0.336815        -9.1652 
  25   0.0000       0.117130         3.1873 
  26   0.0000       0.142007         3.8642 
  27   0.0000       0.142094         3.8666 
  28   0.0000       0.142646         3.8816 
  29   0.0000       0.179293         4.8788 
  30   0.0000       0.179348         4.8803 
  31   0.0000       0.200905         5.4669 
  32   0.0000       0.201200         5.4749 
  33   0.0000       0.201244         5.4761 
  34   0.0000       0.244316         6.6482 
  35   0.0000       0.247957         6.7472 
  36   0.0000       0.248207         6.7540 
  37   0.0000       0.248249         6.7552 
  38   0.0000       0.261710         7.1215 
  39   0.0000       0.261759         7.1228 
  40   0.0000       0.261995         7.1292 
  41   0.0000       0.467679        12.7262 
  42   0.0000       0.467709        12.7270 
  43   0.0000       0.467713        12.7271 
  44   0.0000       0.471692        12.8354 
  45   0.0000       0.480659        13.0794 
  46   0.0000       0.480932        13.0868 
  47   0.0000       0.597329        16.2541 
  48   0.0000       0.597334        16.2543 
  49   0.0000       0.597406        16.2562 
  50   0.0000       0.621478        16.9113 
  51   0.0000       0.658443        17.9171 
  52   0.0000       0.659030        17.9331 
  53   0.0000       0.659286        17.9401 
  54   0.0000       0.673560        18.3285 
  55   0.0000       0.673663        18.3313 
  56   0.0000       0.735249        20.0071 
  57   0.0000       0.736580        20.0434 
  58   0.0000       0.736863        20.0511 
  59   0.0000       0.948484        25.8096 
  60   0.0000       0.949014        25.8240 
  61   0.0000       0.949080        25.8258 
  62   0.0000       1.027009        27.9463 
  63   0.0000       1.027080        27.9483 
  64   0.0000       1.027505        27.9598 
  65   0.0000       1.043086        28.3838 
  66   0.0000       1.043163        28.3859 
  67   0.0000       1.043857        28.4048 
  68   0.0000       1.059028        28.8176 
  69   0.0000       1.097213        29.8567 
  70   0.0000       1.097314        29.8594 
  71   0.0000       1.132438        30.8152 
  72   0.0000       1.132985        30.8301 
  73   0.0000       1.133074        30.8325 
  74   0.0000       1.320012        35.9193 
  75   0.0000       1.322059        35.9751 
  76   0.0000       1.322201        35.9789 
  77   0.0000       1.492055        40.6009 
  78   0.0000       1.735103        47.2146 
  79   0.0000       1.735115        47.2149 
  80   0.0000       1.735192        47.2170 
  81   0.0000       1.872868        50.9633 
  82   0.0000       1.872900        50.9642 
  83   0.0000       1.926704        52.4283 
  84   0.0000       1.927525        52.4506 
  85   0.0000       1.927995        52.4634 
  86   0.0000       2.104586        57.2687 
  87   0.0000       2.256984        61.4157 
  88   0.0000       2.257137        61.4198 
  89   0.0000       2.257309        61.4245 
  90   0.0000       2.350671        63.9650 
  91   0.0000       2.350793        63.9683 
  92   0.0000       2.351075        63.9760 
  93   0.0000       2.352839        64.0240 
  94   0.0000       2.352881        64.0252 
  95   0.0000       2.353158        64.0327 
  96   0.0000       2.391818        65.0847 
  97   0.0000       2.392225        65.0958 
  98   0.0000      13.722651       373.4123 
  99   0.0000      13.764722       374.5571 
 100   0.0000      13.765991       374.5916 
 101   0.0000      13.766082       374.5941 

                    ********************************
                    * MULLIKEN POPULATION ANALYSIS *
                    ********************************

-----------------------
MULLIKEN ATOMIC CHARGES
-----------------------
   0 Si:    1.036881
   1 C :   -0.969708
   2 C :   -0.969391
   3 C :   -0.969329
   4 C :   -0.969462
   5 H :    0.236694
   6 H :    0.236825
   7 H :    0.236835
   8 H :    0.236734
   9 H :    0.236727
  10 H :    0.236884
  11 H :    0.236519
  12 H :    0.236837
  13 H :    0.236698
  14 H :    0.236861
  15 H :    0.236846
  16 H :    0.236549
Sum of atomic charges:   -0.0000000

--------------------------------
MULLIKEN REDUCED ORBITAL CHARGES
--------------------------------
  0 Sis       :     4.938659  s :     4.938659
      pz      :     2.581381  p :     7.743698
      px      :     2.581194
      py      :     2.581123
      dz2     :     0.064928  d :     0.280762
      dxz     :     0.025259
      dyz     :     0.075395
      dx2y2   :     0.043599
      dxy     :     0.071581
  1 C s       :     3.430476  s :     3.430476
      pz      :     1.137329  p :     3.514387
      px      :     1.185439
      py      :     1.191618
      dz2     :     0.005678  d :     0.024846
      dxz     :     0.000429
      dyz     :     0.010259
      dx2y2   :     0.004861
      dxy     :     0.003619
  2 C s       :     3.430561  s :     3.430561
      pz      :     1.136993  p :     3.513985
      px      :     1.223556
      py      :     1.153437
      dz2     :     0.005650  d :     0.024845
      dxz     :     0.001139
      dyz     :     0.009601
      dx2y2   :     0.001798
      dxy     :     0.006656
  3 C s       :     3.430503  s :     3.430503
      pz      :     1.212566  p :     3.513978
      px      :     1.138634
      py      :     1.162778
      dz2     :     0.005882  d :     0.024848
      dxz     :     0.000651
      dyz     :     0.006020
      dx2y2   :     0.003250
      dxy     :     0.009045
  4 C s       :     3.430423  s :     3.430423
      pz      :     1.198820  p :     3.514194
      px      :     1.138383
      py      :     1.176991
      dz2     :     0.007493  d :     0.024845
      dxz     :     0.000526
      dyz     :     0.004692
      dx2y2   :     0.003045
      dxy     :     0.009088
  5 H s       :     0.763306  s :     0.763306
  6 H s       :     0.763175  s :     0.763175
  7 H s       :     0.763165  s :     0.763165
  8 H s       :     0.763266  s :     0.763266
  9 H s       :     0.763273  s :     0.763273
 10 H s       :     0.763116  s :     0.763116
 11 H s       :     0.763481  s :     0.763481
 12 H s       :     0.763163  s :     0.763163
 13 H s       :     0.763302  s :     0.763302
 14 H s       :     0.763139  s :     0.763139
 15 H s       :     0.763154  s :     0.763154
 16 H s       :     0.763451  s :     0.763451


                     *******************************
                     * LOEWDIN POPULATION ANALYSIS *
                     *******************************

----------------------
LOEWDIN ATOMIC CHARGES
----------------------
   0 Si:    0.583896
   1 C :   -0.579627
   2 C :   -0.579505
   3 C :   -0.579491
   4 C :   -0.579491
   5 H :    0.144411
   6 H :    0.144603
   7 H :    0.144584
   8 H :    0.144569
   9 H :    0.144453
  10 H :    0.144615
  11 H :    0.144475
  12 H :    0.144527
  13 H :    0.144433
  14 H :    0.144532
  15 H :    0.144632
  16 H :    0.144382

-------------------------------
LOEWDIN REDUCED ORBITAL CHARGES
-------------------------------
  0 Sis       :     4.831728  s :     4.831728
      pz      :     2.709395  p :     8.128040
      px      :     2.709426
      py      :     2.709220
      dz2     :     0.105797  d :     0.456335
      dxz     :     0.040124
      dyz     :     0.123122
      dx2y2   :     0.070485
      dxy     :     0.116806
  1 C s       :     2.999571  s :     2.999571
      pz      :     1.139013  p :     3.537540
      px      :     1.195583
      py      :     1.202944
      dz2     :     0.009591  d :     0.042515
      dxz     :     0.000700
      dyz     :     0.016713
      dx2y2   :     0.008125
      dxy     :     0.007386
  2 C s       :     2.999620  s :     2.999620
      pz      :     1.138667  p :     3.537369
      px      :     1.240743
      py      :     1.157958
      dz2     :     0.009556  d :     0.042516
      dxz     :     0.002005
      dyz     :     0.015471
      dx2y2   :     0.003747
      dxy     :     0.011738
  3 C s       :     2.999614  s :     2.999614
      pz      :     1.227712  p :     3.537354
      px      :     1.140424
      py      :     1.169218
      dz2     :     0.010429  d :     0.042523
      dxz     :     0.001225
      dyz     :     0.010966
      dx2y2   :     0.005267
      dxy     :     0.014635
  4 C s       :     2.999561  s :     2.999561
      pz      :     1.211350  p :     3.537407
      px      :     1.140305
      py      :     1.185753
      dz2     :     0.012647  d :     0.042522
      dxz     :     0.000952
      dyz     :     0.009054
      dx2y2   :     0.005099
      dxy     :     0.014771
  5 H s       :     0.855589  s :     0.855589
  6 H s       :     0.855397  s :     0.855397
  7 H s       :     0.855416  s :     0.855416
  8 H s       :     0.855431  s :     0.855431
  9 H s       :     0.855547  s :     0.855547
 10 H s       :     0.855385  s :     0.855385
 11 H s       :     0.855525  s :     0.855525
 12 H s       :     0.855473  s :     0.855473
 13 H s       :     0.855567  s :     0.855567
 14 H s       :     0.855468  s :     0.855468
 15 H s       :     0.855368  s :     0.855368
 16 H s       :     0.855618  s :     0.855618


                      *****************************
                      * MAYER POPULATION ANALYSIS *
                      *****************************

  NA   - Mulliken gross atomic population
  ZA   - Total nuclear charge
  QA   - Mulliken gross atomic charge
  VA   - Mayer's total valence
  BVA  - Mayer's bonded valence
  FA   - Mayer's free valence

  ATOM       NA         ZA         QA         VA         BVA        FA
  0 Si    12.9631    14.0000     1.0369     3.8543     3.8543     0.0000
  1 C      6.9697     6.0000    -0.9697     3.6836     3.6836     0.0000
  2 C      6.9694     6.0000    -0.9694     3.6839     3.6839    -0.0000
  3 C      6.9693     6.0000    -0.9693     3.6837     3.6837    -0.0000
  4 C      6.9695     6.0000    -0.9695     3.6839     3.6839    -0.0000
  5 H      0.7633     1.0000     0.2367     0.9066     0.9066    -0.0000
  6 H      0.7632     1.0000     0.2368     0.9067     0.9067    -0.0000
  7 H      0.7632     1.0000     0.2368     0.9067     0.9067     0.0000
  8 H      0.7633     1.0000     0.2367     0.9066     0.9066    -0.0000
  9 H      0.7633     1.0000     0.2367     0.9067     0.9067     0.0000
 10 H      0.7631     1.0000     0.2369     0.9066     0.9066    -0.0000
 11 H      0.7635     1.0000     0.2365     0.9067     0.9067     0.0000
 12 H      0.7632     1.0000     0.2368     0.9067     0.9067    -0.0000
 13 H      0.7633     1.0000     0.2367     0.9067     0.9067    -0.0000
 14 H      0.7631     1.0000     0.2369     0.9066     0.9066    -0.0000
 15 H      0.7632     1.0000     0.2368     0.9066     0.9066     0.0000
 16 H      0.7635     1.0000     0.2365     0.9067     0.9067    -0.0000

  Mayer bond orders larger than 0.100000
B(  0-Si,  1-C ) :   0.9449 B(  0-Si,  2-C ) :   0.9449 B(  0-Si,  3-C ) :   0.9449 
B(  0-Si,  4-C ) :   0.9451 B(  1-C ,  5-H ) :   0.9101 B(  1-C ,  6-H ) :   0.9101 
B(  1-C ,  7-H ) :   0.9102 B(  2-C ,  8-H ) :   0.9101 B(  2-C ,  9-H ) :   0.9102 
B(  2-C , 10-H ) :   0.9101 B(  3-C , 11-H ) :   0.9101 B(  3-C , 12-H ) :   0.9101 
B(  3-C , 13-H ) :   0.9103 B(  4-C , 14-H ) :   0.9101 B(  4-C , 15-H ) :   0.9100 
B(  4-C , 16-H ) :   0.9103 

-------
TIMINGS
-------

Total SCF time: 0 days 0 hours 0 min 12 sec 

Total time                  ....      12.446 sec
Sum of individual times     ....      12.324 sec  ( 99.0%)

Fock matrix formation       ....      11.500 sec  ( 92.4%)
  Split-RI-J                ....       0.655 sec  (  5.7% of F)
  Chain of spheres X        ....       8.615 sec  ( 74.9% of F)
  XC integration            ....       1.032 sec  (  9.0% of F)
    Basis function eval.    ....       0.490 sec  ( 47.5% of XC)
    Density eval.           ....       0.159 sec  ( 15.4% of XC)
    XC-Functional eval.     ....       0.166 sec  ( 16.1% of XC)
    XC-Potential eval.      ....       0.146 sec  ( 14.2% of XC)
Diagonalization             ....       0.001 sec  (  0.0%)
Density matrix formation    ....       0.001 sec  (  0.0%)
Population analysis         ....       0.002 sec  (  0.0%)
Initial guess               ....       0.002 sec  (  0.0%)
Orbital Transformation      ....       0.000 sec  (  0.0%)
Orbital Orthonormalization  ....       0.001 sec  (  0.0%)
DIIS solution               ....       0.000 sec  (  0.0%)
SOSCF solution              ....       0.003 sec  (  0.0%)
Grid generation             ....       0.814 sec  (  6.5%)

Maximum memory used throughout the entire SCF-calculation: 56.8 MB


-------------------------------------------------------------------------------
                          DFT DISPERSION CORRECTION                            
                                                                               
                              DFTD3 V3.1  Rev 1                                
                          USING Becke-Johnson damping                          
-------------------------------------------------------------------------------
The PBEh-3c composite method is recognized
Using three-body term ABC
Active option DFTDOPT                   ...         4   

molecular C6(AA) [au] = 2519.578973 


            DFT-D V3
 parameters
 s6 scaling factor         :     1.0000 
 a1 scaling factor         :     0.4860 
 s8 scaling factor         :     0.0000 
 a2 scaling factor         :     4.5000 
 Damping factor alpha9(ATM):    16.0000 
 ad hoc parameters k1-k3   :    16.0000     1.3333    -4.0000 

 Edisp/kcal,au: -4.667038839722  -0.007437399011 
 E6   /kcal   :  -4.708300546 
 E8   /kcal   :  -0.000000000 
 E6(ABC)      :   0.041261707 
 % E8         :   0.000000000 
 % E6(ABC)    :  -0.884108917 

-------------------------   ----------------
Dispersion correction           -0.007437399
-------------------------   ----------------

------------------   -----------------
gCP correction             0.013341108
------------------   -----------------

-------------------------   --------------------
FINAL SINGLE POINT ENERGY      -448.486860493976
-------------------------   --------------------

                                *** OPTIMIZATION RUN DONE ***

                            ***************************************
                            *     ORCA property calculations      *
                            ***************************************

                                    ---------------------
                                    Active property flags
                                    ---------------------
   (+) Dipole Moment


------------------------------------------------------------------------------
                       ORCA ELECTRIC PROPERTIES CALCULATION
------------------------------------------------------------------------------

Dipole Moment Calculation                       ... on
Quadrupole Moment Calculation                   ... off
Polarizability Calculation                      ... off
GBWName                                         ... TMS.gbw
Electron density                                ... TMS.scfp
The origin for moment calculation is the CENTER OF MASS  = (-3.819198,  2.279830 -0.029691)

-------------
DIPOLE MOMENT
-------------
                                X             Y             Z
Electronic contribution:     -0.00871       0.00186       0.00868
Nuclear contribution   :      0.00732      -0.00204      -0.00741
                        -----------------------------------------
Total Dipole Moment    :     -0.00139      -0.00018       0.00127
                        -----------------------------------------
Magnitude (a.u.)       :      0.00189
Magnitude (Debye)      :      0.00481



--------------------
Rotational spectrum 
--------------------
 
Rotational constants in cm-1:     0.102767     0.102459     0.102419 
Rotational constants in MHz :  3080.877566  3071.647856  3070.434947 

 Dipole components along the rotational axes: 
x,y,z [a.u.] :     0.000262    -0.000748     0.001719 
x,y,z [Debye]:     0.000665    -0.001901     0.004369 

 

Timings for individual modules:

Sum of individual times         ...       79.044 sec (=   1.317 min)
GTO integral calculation        ...        0.494 sec (=   0.008 min)   0.6 %
SCF iterations                  ...       61.224 sec (=   1.020 min)  77.5 %
SCF Gradient evaluation         ...       17.255 sec (=   0.288 min)  21.8 %
Geometry relaxation             ...        0.071 sec (=   0.001 min)   0.1 %
                             ****ORCA TERMINATED NORMALLY****
TOTAL RUN TIME: 0 days 0 hours 1 minutes 19 seconds 351 msec
