
                                 *****************
                                 * O   R   C   A *
                                 *****************

                                            #,                                       
                                            ###                                      
                                            ####                                     
                                            #####                                    
                                            ######                                   
                                           ########,                                 
                                     ,,################,,,,,                         
                               ,,#################################,,                 
                          ,,##########################################,,             
                       ,#########################################, ''#####,          
                    ,#############################################,,   '####,        
                  ,##################################################,,,,####,       
                ,###########''''           ''''###############################       
              ,#####''   ,,,,##########,,,,          '''####'''          '####       
            ,##' ,,,,###########################,,,                        '##       
           ' ,,###''''                  '''############,,,                           
         ,,##''                                '''############,,,,        ,,,,,,###''
      ,#''                                            '''#######################'''  
     '                                                          ''''####''''         
             ,#######,   #######,   ,#######,      ##                                
            ,#'     '#,  ##    ##  ,#'     '#,    #''#        ######   ,####,        
            ##       ##  ##   ,#'  ##            #'  '#       #        #'  '#        
            ##       ##  #######   ##           ,######,      #####,   #    #        
            '#,     ,#'  ##    ##  '#,     ,#' ,#      #,         ##   #,  ,#        
             '#######'   ##     ##  '#######'  #'      '#     #####' # '####'        



                  #######################################################
                  #                        -***-                        #
                  #          Department of theory and spectroscopy      #
                  #    Directorship and core code : Frank Neese         #
                  #        Max Planck Institute fuer Kohlenforschung    #
                  #                Kaiser Wilhelm Platz 1               #
                  #                 D-45470 Muelheim/Ruhr               #
                  #                      Germany                        #
                  #                                                     #
                  #                  All rights reserved                #
                  #                        -***-                        #
                  #######################################################


                         Program Version 5.0.2 -  RELEASE  -


 With contributions from (in alphabetic order):
   Daniel Aravena         : Magnetic Suceptibility
   Michael Atanasov       : Ab Initio Ligand Field Theory (pilot matlab implementation)
   Alexander A. Auer      : GIAO ZORA, VPT2 properties, NMR spectrum
   Ute Becker             : Parallelization
   Giovanni Bistoni       : ED, misc. LED, open-shell LED, HFLD
   Martin Brehm           : Molecular dynamics
   Dmytro Bykov           : SCF Hessian
   Vijay G. Chilkuri      : MRCI spin determinant printing, contributions to CSF-ICE
   Dipayan Datta          : RHF DLPNO-CCSD density
   Achintya Kumar Dutta   : EOM-CC, STEOM-CC
   Dmitry Ganyushin       : Spin-Orbit,Spin-Spin,Magnetic field MRCI
   Miquel Garcia          : C-PCM and meta-GGA Hessian, CC/C-PCM, Gaussian charge scheme
   Yang Guo               : DLPNO-NEVPT2, F12-NEVPT2, CIM, IAO-localization
   Andreas Hansen         : Spin unrestricted coupled pair/coupled cluster methods
   Benjamin Helmich-Paris : MC-RPA, TRAH-SCF, COSX integrals
   Lee Huntington         : MR-EOM, pCC
   Robert Izsak           : Overlap fitted RIJCOSX, COSX-SCS-MP3, EOM
   Marcus Kettner         : VPT2
   Christian Kollmar      : KDIIS, OOCD, Brueckner-CCSD(T), CCSD density, CASPT2, CASPT2-K
   Simone Kossmann        : Meta GGA functionals, TD-DFT gradient, OOMP2, MP2 Hessian
   Martin Krupicka        : Initial AUTO-CI
   Lucas Lang             : DCDCAS
   Marvin Lechner         : AUTO-CI (C++ implementation), FIC-MRCC
   Dagmar Lenk            : GEPOL surface, SMD
   Dimitrios Liakos       : Extrapolation schemes; Compound Job, initial MDCI parallelization
   Dimitrios Manganas     : Further ROCIS development; embedding schemes
   Dimitrios Pantazis     : SARC Basis sets
   Anastasios Papadopoulos: AUTO-CI, single reference methods and gradients
   Taras Petrenko         : DFT Hessian,TD-DFT gradient, ASA, ECA, R-Raman, ABS, FL, XAS/XES, NRVS
   Peter Pinski           : DLPNO-MP2, DLPNO-MP2 Gradient
   Christoph Reimann      : Effective Core Potentials
   Marius Retegan         : Local ZFS, SOC
   Christoph Riplinger    : Optimizer, TS searches, QM/MM, DLPNO-CCSD(T), (RO)-DLPNO pert. Triples
   Tobias Risthaus        : Range-separated hybrids, TD-DFT gradient, RPA, STAB
   Michael Roemelt        : Original ROCIS implementation
   Masaaki Saitow         : Open-shell DLPNO-CCSD energy and density
   Barbara Sandhoefer     : DKH picture change effects
   Avijit Sen             : IP-ROCIS
   Kantharuban Sivalingam : CASSCF convergence, NEVPT2, FIC-MRCI
   Bernardo de Souza      : ESD, SOC TD-DFT
   Georgi Stoychev        : AutoAux, RI-MP2 NMR, DLPNO-MP2 response
   Willem Van den Heuvel  : Paramagnetic NMR
   Boris Wezisla          : Elementary symmetry handling
   Frank Wennmohs         : Technical directorship


 We gratefully acknowledge several colleagues who have allowed us to
 interface, adapt or use parts of their codes:
   Stefan Grimme, W. Hujo, H. Kruse, P. Pracht,  : VdW corrections, initial TS optimization,
                  C. Bannwarth, S. Ehlert          DFT functionals, gCP, sTDA/sTD-DF
   Ed Valeev, F. Pavosevic, A. Kumar             : LibInt (2-el integral package), F12 methods
   Garnet Chan, S. Sharma, J. Yang, R. Olivares  : DMRG
   Ulf Ekstrom                                   : XCFun DFT Library
   Mihaly Kallay                                 : mrcc  (arbitrary order and MRCC methods)
   Jiri Pittner, Ondrej Demel                    : Mk-CCSD
   Frank Weinhold                                : gennbo (NPA and NBO analysis)
   Christopher J. Cramer and Donald G. Truhlar   : smd solvation model
   Lars Goerigk                                  : TD-DFT with DH, B97 family of functionals
   V. Asgeirsson, H. Jonsson                     : NEB implementation
   FAccTs GmbH                                   : IRC, NEB, NEB-TS, DLPNO-Multilevel, CI-OPT
                                                   MM, QMMM, 2- and 3-layer-ONIOM, Crystal-QMMM,
                                                   LR-CPCM, SF, NACMEs, symmetry and pop. for TD-DFT,
                                                   nearIR, NL-DFT gradient (VV10), updates on ESD,
                                                   ML-optimized integration grids
   S Lehtola, MJT Oliveira, MAL Marques          : LibXC Library
   Liviu Ungur et al                             : ANISO software


 Your calculation uses the libint2 library for the computation of 2-el integrals
 For citations please refer to: http://libint.valeyev.net

 Your ORCA version has been built with support for libXC version: 5.1.0
 For citations please refer to: https://tddft.org/programs/libxc/

 This ORCA versions uses:
   CBLAS   interface :  Fast vector & matrix operations
   LAPACKE interface :  Fast linear algebra routines
   SCALAPACK package :  Parallel linear algebra routines
   Shared memory     :  Shared parallel matrices
   BLAS/LAPACK       :  OpenBLAS 0.3.15  USE64BITINT DYNAMIC_ARCH NO_AFFINITY Haswell SINGLE_THREADED
        Core in use  :  Haswell
   Copyright (c) 2011-2014, The OpenBLAS Project




***************************************
The coordinates will be read from file: TMS.xyz
***************************************


Your calculation utilizes the geometrical counterpoise correction gCP
Please cite in your paper:
H.Kruse, S. Grimme J.Chem.Phys., 136, (2012), 154101 
   

Your calculation utilizes the atom-pairwise dispersion correction
with the Becke-Johnson damping scheme (D3BJ)
Cite in your paper:
S.Grimme, S.Ehrlich, L.Goerigk, J Comput Chem, (2011), 32, 1456–1465 
S.Grimme, J.Antony, S.Ehrlich and H.Krieg, J.Chem.Phys., 132, (2010), 154104 
   

Your calculation employs the composite approach PBEh-3c.
Please cite in your paper:
S. Grimme, J. G. Brandenburg, C. Bannwarth, A. Hansen J.Chem.Phys., 143, (2015), 054107 
   

================================================================================

----- Orbital basis set information -----
Your calculation utilizes the basis: def2-mSVP

----- AuxJ basis set information -----
Your calculation utilizes the auxiliary basis: def2/J
   F. Weigend, Phys. Chem. Chem. Phys. 8, 1057 (2006).

================================================================================
                                        WARNINGS
                       Please study these warnings very carefully!
================================================================================


WARNING: Geometry Optimization
  ===> : Switching off AutoStart
         For restart on a previous wavefunction, please use MOREAD

INFO   : the flag for use of the SHARK integral package has been found!

================================================================================
                                       INPUT FILE
================================================================================
NAME = TMS.inp
|  1> ! PBEh-3c Opt
|  2> 
|  3> *xyzfile 0 1 TMS.xyz
|  4> 
|  5> 
|  6> 
|  7> 
|  8>                          ****END OF INPUT****
================================================================================

                       *****************************
                       * Geometry Optimization Run *
                       *****************************

Geometry optimization settings:
Update method            Update   .... BFGS
Choice of coordinates    CoordSys .... Z-matrix Internals
Initial Hessian          InHess   .... Almoef's Model

Convergence Tolerances:
Energy Change            TolE     ....  5.0000e-06 Eh
Max. Gradient            TolMAXG  ....  3.0000e-04 Eh/bohr
RMS Gradient             TolRMSG  ....  1.0000e-04 Eh/bohr
Max. Displacement        TolMAXD  ....  4.0000e-03 bohr
RMS Displacement         TolRMSD  ....  2.0000e-03 bohr
Strict Convergence                ....  False
------------------------------------------------------------------------------
                        ORCA OPTIMIZATION COORDINATE SETUP
------------------------------------------------------------------------------

The optimization will be done in new redundant internal coordinates
Making redundant internal coordinates   ...  (new redundants) done
Evaluating the initial hessian          ...  (Almloef) done
Evaluating the coordinates              ...  done
Calculating the B-matrix                .... done
Calculating the G-matrix                .... done
Diagonalizing the G-matrix              .... done
The first mode is                       ....   37
The number of degrees of freedom        ....   45

    -----------------------------------------------------------------
                    Redundant Internal Coordinates


    -----------------------------------------------------------------
         Definition                    Initial Value    Approx d2E/dq
    -----------------------------------------------------------------
      1. B(C   1,Si  0)                  1.8666         0.471533   
      2. B(C   2,Si  0)                  1.8666         0.471530   
      3. B(C   3,Si  0)                  1.8666         0.471538   
      4. B(C   4,Si  0)                  1.8666         0.471532   
      5. B(H   5,C   1)                  1.1093         0.335446   
      6. B(H   6,C   1)                  1.1093         0.335452   
      7. B(H   7,C   1)                  1.1093         0.335436   
      8. B(H   8,C   2)                  1.1093         0.335446   
      9. B(H   9,C   2)                  1.1093         0.335440   
     10. B(H  10,C   2)                  1.1093         0.335437   
     11. B(H  11,C   3)                  1.1093         0.335438   
     12. B(H  12,C   3)                  1.1093         0.335441   
     13. B(H  13,C   3)                  1.1093         0.335445   
     14. B(H  14,C   4)                  1.1093         0.335444   
     15. B(H  15,C   4)                  1.1093         0.335440   
     16. B(H  16,C   4)                  1.1093         0.335457   
     17. A(C   3,Si  0,C   4)          109.4712         0.459105   
     18. A(C   1,Si  0,C   4)          109.4717         0.459104   
     19. A(C   1,Si  0,C   2)          109.4709         0.459104   
     20. A(C   2,Si  0,C   4)          109.4712         0.459104   
     21. A(C   2,Si  0,C   3)          109.4712         0.459105   
     22. A(C   1,Si  0,C   3)          109.4710         0.459105   
     23. A(Si  0,C   1,H   5)          109.4482         0.357964   
     24. A(H   6,C   1,H   7)          109.4939         0.284462   
     25. A(H   5,C   1,H   7)          109.4945         0.284461   
     26. A(Si  0,C   1,H   7)          109.4477         0.357962   
     27. A(H   5,C   1,H   6)          109.4948         0.284463   
     28. A(Si  0,C   1,H   6)          109.4482         0.357965   
     29. A(Si  0,C   2,H   9)          109.4481         0.357962   
     30. A(Si  0,C   2,H   8)          109.4484         0.357963   
     31. A(H   8,C   2,H   9)          109.4947         0.284462   
     32. A(H   9,C   2,H  10)          109.4945         0.284460   
     33. A(H   8,C   2,H  10)          109.4938         0.284461   
     34. A(Si  0,C   2,H  10)          109.4478         0.357962   
     35. A(H  12,C   3,H  13)          109.4942         0.284462   
     36. A(H  11,C   3,H  13)          109.4938         0.284461   
     37. A(Si  0,C   3,H  13)          109.4484         0.357964   
     38. A(H  11,C   3,H  12)          109.4940         0.284461   
     39. A(Si  0,C   3,H  12)          109.4482         0.357964   
     40. A(Si  0,C   3,H  11)          109.4487         0.357963   
     41. A(H  15,C   4,H  16)          109.4946         0.284463   
     42. A(H  14,C   4,H  16)          109.4952         0.284464   
     43. A(Si  0,C   4,H  16)          109.4479         0.357966   
     44. A(H  14,C   4,H  15)          109.4941         0.284461   
     45. A(Si  0,C   4,H  15)          109.4475         0.357963   
     46. A(Si  0,C   4,H  14)          109.4479         0.357963   
     47. D(H   6,C   1,Si  0,C   4)     59.9997         0.003932   
     48. D(H   7,C   1,Si  0,C   4)    -59.9996         0.003932   
     49. D(H   7,C   1,Si  0,C   3)   -179.9998         0.003932   
     50. D(H   6,C   1,Si  0,C   2)    179.9998         0.003932   
     51. D(H   5,C   1,Si  0,C   4)   -179.9996         0.003932   
     52. D(H   6,C   1,Si  0,C   3)    -60.0005         0.003932   
     53. D(H   5,C   1,Si  0,C   3)     60.0002         0.003932   
     54. D(H   5,C   1,Si  0,C   2)    -59.9995         0.003932   
     55. D(H   7,C   1,Si  0,C   2)     60.0005         0.003932   
     56. D(H   9,C   2,Si  0,C   3)   -180.0000         0.003932   
     57. D(H   8,C   2,Si  0,C   4)   -179.9994         0.003932   
     58. D(H   8,C   2,Si  0,C   3)    -59.9994         0.003932   
     59. D(H   8,C   2,Si  0,C   1)     60.0002         0.003932   
     60. D(H   9,C   2,Si  0,C   4)     60.0000         0.003932   
     61. D(H  10,C   2,Si  0,C   4)    -60.0000         0.003932   
     62. D(H  10,C   2,Si  0,C   3)     60.0000         0.003932   
     63. D(H  10,C   2,Si  0,C   1)    179.9996         0.003932   
     64. D(H   9,C   2,Si  0,C   1)    -60.0004         0.003932   
     65. D(H  13,C   3,Si  0,C   2)    179.9996         0.003932   
     66. D(H  13,C   3,Si  0,C   1)     60.0001         0.003932   
     67. D(H  12,C   3,Si  0,C   4)     59.9996         0.003932   
     68. D(H  12,C   3,Si  0,C   2)    -60.0004         0.003932   
     69. D(H  12,C   3,Si  0,C   1)   -179.9999         0.003932   
     70. D(H  11,C   3,Si  0,C   4)    179.9996         0.003932   
     71. D(H  11,C   3,Si  0,C   2)     59.9996         0.003932   
     72. D(H  13,C   3,Si  0,C   4)    -60.0005         0.003932   
     73. D(H  11,C   3,Si  0,C   1)    -59.9999         0.003932   
     74. D(H  15,C   4,Si  0,C   1)    -59.9999         0.003932   
     75. D(H  14,C   4,Si  0,C   3)    179.9995         0.003932   
     76. D(H  14,C   4,Si  0,C   2)    -60.0006         0.003932   
     77. D(H  14,C   4,Si  0,C   1)     59.9994         0.003932   
     78. D(H  16,C   4,Si  0,C   3)    -59.9997         0.003932   
     79. D(H  16,C   4,Si  0,C   2)     60.0003         0.003932   
     80. D(H  16,C   4,Si  0,C   1)   -179.9998         0.003932   
     81. D(H  15,C   4,Si  0,C   3)     60.0002         0.003932   
     82. D(H  15,C   4,Si  0,C   2)   -179.9998         0.003932   
    -----------------------------------------------------------------

Number of atoms                         .... 17
Number of degrees of freedom            .... 82

         *************************************************************
         *                GEOMETRY OPTIMIZATION CYCLE   1            *
         *************************************************************
---------------------------------
CARTESIAN COORDINATES (ANGSTROEM)
---------------------------------
  Si    -2.020550    1.206300   -0.016180
  C     -0.746990    2.566700    0.091480
  C     -3.731640    1.950820    0.029660
  C     -1.793530    0.266410   -1.612830
  C     -1.810050    0.041280    1.426960
  H     -0.872440    3.258810   -0.766310
  H      0.269710    2.123840    0.064210
  H     -0.882250    3.125000    1.040470
  H     -3.856330    2.643080   -0.828120
  H     -3.866140    2.509280    0.978660
  H     -4.488180    1.142040   -0.034350
  H     -1.918710    0.959100   -2.470200
  H     -2.550560   -0.541940   -1.676420
  H     -0.776560   -0.175870   -1.639680
  H     -1.945030    0.600230    2.375600
  H     -0.793070   -0.400940    1.399340
  H     -2.567070   -0.767000    1.362590

----------------------------
CARTESIAN COORDINATES (A.U.)
----------------------------
  NO LB      ZA    FRAG     MASS         X           Y           Z
   0 Si   14.0000    0    28.086   -3.818286    2.279577   -0.030576
   1 C     6.0000    0    12.011   -1.411607    4.850360    0.172872
   2 C     6.0000    0    12.011   -7.051778    3.686516    0.056049
   3 C     6.0000    0    12.011   -3.389281    0.503442   -3.047807
   4 C     6.0000    0    12.011   -3.420499    0.078008    2.696564
   5 H     1.0000    0     1.008   -1.648673    6.158258   -1.448116
   6 H     1.0000    0     1.008    0.509678    4.013476    0.121339
   7 H     1.0000    0     1.008   -1.667211    5.905394    1.966203
   8 H     1.0000    0     1.008   -7.287408    4.994697   -1.564920
   9 H     1.0000    0     1.008   -7.305946    4.741852    1.849399
  10 H     1.0000    0     1.008   -8.481431    2.158143   -0.064912
  11 H     1.0000    0     1.008   -3.625836    1.812436   -4.668001
  12 H     1.0000    0     1.008   -4.819860   -1.024118   -3.167975
  13 H     1.0000    0     1.008   -1.467486   -0.332346   -3.098546
  14 H     1.0000    0     1.008   -3.675574    1.134270    4.489233
  15 H     1.0000    0     1.008   -1.498685   -0.757667    2.644369
  16 H     1.0000    0     1.008   -4.851059   -1.449420    2.574922

--------------------------------
INTERNAL COORDINATES (ANGSTROEM)
--------------------------------
 Si     0   0   0     0.000000000000     0.00000000     0.00000000
 C      1   0   0     1.866610272446     0.00000000     0.00000000
 C      1   2   0     1.866611990774   109.47092876     0.00000000
 C      1   2   3     1.866607220333   109.47102354   119.99966890
 C      1   2   3     1.866610540525   109.47172480   239.99989010
 H      2   1   3     1.109305025095   109.44819164   300.00048953
 H      2   1   3     1.109300465383   109.44819114   179.99984628
 H      2   1   3     1.109313381196   109.44772194    60.00054678
 H      3   1   2     1.109305202413   109.44840223    60.00019546
 H      3   1   2     1.109310065581   109.44807327   299.99959469
 H      3   1   2     1.109312913519   109.44780184   179.99957947
 H      4   1   2     1.109311852186   109.44869802   300.00007696
 H      4   1   2     1.109309619313   109.44818300   180.00009915
 H      4   1   2     1.109306315586   109.44844945    60.00005378
 H      5   1   2     1.109307239902   109.44786780    59.99938673
 H      5   1   2     1.109310467453   109.44753888   300.00013694
 H      5   1   2     1.109296775304   109.44793021   180.00022460

---------------------------
INTERNAL COORDINATES (A.U.)
---------------------------
 Si     0   0   0     0.000000000000     0.00000000     0.00000000
 C      1   0   0     3.527382213687     0.00000000     0.00000000
 C      1   2   0     3.527385460856   109.47092876     0.00000000
 C      1   2   3     3.527376446030   109.47102354   119.99966890
 C      1   2   3     3.527382720283   109.47172480   239.99989010
 H      2   1   3     2.096282696411   109.44819164   300.00048953
 H      2   1   3     2.096274079806   109.44819114   179.99984628
 H      2   1   3     2.096298487154   109.44772194    60.00054678
 H      3   1   2     2.096283031494   109.44840223    60.00019546
 H      3   1   2     2.096292221551   109.44807327   299.99959469
 H      3   1   2     2.096297603373   109.44780184   179.99957947
 H      4   1   2     2.096295597744   109.44869802   300.00007696
 H      4   1   2     2.096291378226   109.44818300   180.00009915
 H      4   1   2     2.096285135088   109.44844945    60.00005378
 H      5   1   2     2.096286881792   109.44786780    59.99938673
 H      5   1   2     2.096292980978   109.44753888   300.00013694
 H      5   1   2     2.096267106567   109.44793021   180.00022460

---------------------
BASIS SET INFORMATION
---------------------
There are 3 groups of distinct atoms

 Group   1 Type Si  : 10s7p1d contracted to 4s3p1d pattern {5311/511/1}
 Group   2 Type C   : 8s4p1d contracted to 4s2p1d pattern {5111/31/1}
 Group   3 Type H   : 4s contracted to 2s pattern {31}

Atom   0Si   basis set group =>   1
Atom   1C    basis set group =>   2
Atom   2C    basis set group =>   2
Atom   3C    basis set group =>   2
Atom   4C    basis set group =>   2
Atom   5H    basis set group =>   3
Atom   6H    basis set group =>   3
Atom   7H    basis set group =>   3
Atom   8H    basis set group =>   3
Atom   9H    basis set group =>   3
Atom  10H    basis set group =>   3
Atom  11H    basis set group =>   3
Atom  12H    basis set group =>   3
Atom  13H    basis set group =>   3
Atom  14H    basis set group =>   3
Atom  15H    basis set group =>   3
Atom  16H    basis set group =>   3
---------------------------------
AUXILIARY/J BASIS SET INFORMATION
---------------------------------
There are 3 groups of distinct atoms

 Group   1 Type Si  : 14s5p5d2f1g contracted to 8s4p3d1f1g pattern {71111111/2111/311/2/1}
 Group   2 Type C   : 12s5p4d2f1g contracted to 6s4p3d1f1g pattern {711111/2111/211/2/1}
 Group   3 Type H   : 5s2p1d contracted to 3s1p1d pattern {311/2/1}

Atom   0Si   basis set group =>   1
Atom   1C    basis set group =>   2
Atom   2C    basis set group =>   2
Atom   3C    basis set group =>   2
Atom   4C    basis set group =>   2
Atom   5H    basis set group =>   3
Atom   6H    basis set group =>   3
Atom   7H    basis set group =>   3
Atom   8H    basis set group =>   3
Atom   9H    basis set group =>   3
Atom  10H    basis set group =>   3
Atom  11H    basis set group =>   3
Atom  12H    basis set group =>   3
Atom  13H    basis set group =>   3
Atom  14H    basis set group =>   3
Atom  15H    basis set group =>   3
Atom  16H    basis set group =>   3
------------------------------------------------------------------------------
                           ORCA GTO INTEGRAL CALCULATION
                           -- RI-GTO INTEGRALS CHOSEN --
------------------------------------------------------------------------------
------------------------------------------------------------------------------
                   ___                                                        
                  /   \      - P O W E R E D   B Y -                         
                 /     \                                                     
                 |  |  |   _    _      __       _____    __    __             
                 |  |  |  | |  | |    /  \     |  _  \  |  |  /  |          
                  \  \/   | |  | |   /    \    | | | |  |  | /  /          
                 / \  \   | |__| |  /  /\  \   | |_| |  |  |/  /          
                |  |  |   |  __  | /  /__\  \  |    /   |      \           
                |  |  |   | |  | | |   __   |  |    \   |  |\   \          
                \     /   | |  | | |  |  |  |  | |\  \  |  | \   \       
                 \___/    |_|  |_| |__|  |__|  |_| \__\ |__|  \__/        
                                                                              
                      - O R C A' S   B I G   F R I E N D -                    
                                      &                                       
                       - I N T E G R A L  F E E D E R -                       
                                                                              
 v1 FN, 2020, v2 2021                                                         
------------------------------------------------------------------------------


Reading SHARK input file TMS.SHARKINP.tmp ... ok
----------------------
SHARK INTEGRAL PACKAGE
----------------------

Number of atoms                             ...     17
Number of basis functions                   ...    102
Number of shells                            ...     60
Maximum angular momentum                    ...      2
Integral batch strategy                     ... SHARK/LIBINT Hybrid
RI-J (if used) integral strategy            ... SPLIT-RIJ (Revised 2003 algorithm where possible)
Printlevel                                  ...      1
Contraction scheme used                     ... SEGMENTED contraction
Coulomb Range Separation                    ... NOT USED
Exchange Range Separation                   ... NOT USED
Finite Nucleus Model                        ... NOT USED
Auxiliary Coulomb fitting basis             ... AVAILABLE
   # of basis functions in Aux-J            ...    379
   # of shells in Aux-J                     ...    137
   Maximum angular momentum in Aux-J        ...      4
Auxiliary J/K fitting basis                 ... NOT available
Auxiliary Correlation fitting basis         ... NOT available
Auxiliary 'external' fitting basis          ... NOT available
Integral threshold                          ...     2.500000e-11
Primitive cut-off                           ...     2.500000e-12
Primitive pair pre-selection threshold      ...     2.500000e-12

Calculating pre-screening integrals         ... done (  0.0 sec) Dimension = 60
Organizing shell pair data                  ... done (  0.0 sec)
Shell pair information
Total number of shell pairs                 ...      1830
Shell pairs after pre-screening             ...      1768
Total number of primitive shell pairs       ...      7132
Primitive shell pairs kept                  ...      4966
          la=0 lb=0:    928 shell pairs
          la=1 lb=0:    484 shell pairs
          la=1 lb=1:     66 shell pairs
          la=2 lb=0:    220 shell pairs
          la=2 lb=1:     55 shell pairs
          la=2 lb=2:     15 shell pairs

Calculating one electron integrals          ... done (  0.0 sec)
Calculating RI/J V-Matrix + Cholesky decomp.... done (  0.0 sec)
Calculating Nuclear repulsion               ... done (  0.0 sec) ENN=    247.140589036206 Eh

SHARK setup successfully completed in   0.2 seconds

Maximum memory used throughout the entire GTOINT-calculation: 11.8 MB
-------------------------------------------------------------------------------
                                 ORCA SCF
-------------------------------------------------------------------------------

------------
SCF SETTINGS
------------
Hamiltonian:
 Density Functional     Method          .... DFT(GTOs)
 Exchange Functional    Exchange        .... PBE
   PBE kappa parameter   XKappa         ....  1.024500
   PBE mue parameter    XMuePBE         ....  0.123457
 Correlation Functional Correlation     .... PBE
   PBE beta parameter  CBetaPBE         ....  0.030000
 LDA part of GGA corr.  LDAOpt          .... PW91-LDA
 Gradients option       PostSCFGGA      .... off
 Hybrid DFT is turned on
   Fraction HF Exchange ScalHFX         ....  0.420000
   Scaling of DF-GGA-X  ScalDFX         ....  0.580000
   Scaling of DF-GGA-C  ScalDFC         ....  1.000000
   Scaling of DF-LDA-C  ScalLDAC        ....  1.000000
   Perturbative correction              ....  0.000000
   Density functional embedding theory  .... OFF
 RI-approximation to the Coulomb term is turned on
   Number of AuxJ basis functions       .... 379
   RIJ-ON(X) (HFX calculated with O(N)) .... on
   Number of AuxJ basis functions       .... 379
   RIJ-COSX (HFX calculated with COS-X)).... on


General Settings:
 Integral files         IntName         .... TMS
 Hartree-Fock type      HFTyp           .... RHF
 Total Charge           Charge          ....    0
 Multiplicity           Mult            ....    1
 Number of Electrons    NEL             ....   50
 Basis Dimension        Dim             ....  102
 Nuclear Repulsion      ENuc            ....    247.1405890362 Eh

Convergence Acceleration:
 DIIS                   CNVDIIS         .... on
   Start iteration      DIISMaxIt       ....    12
   Startup error        DIISStart       ....  0.200000
   # of expansion vecs  DIISMaxEq       ....     5
   Bias factor          DIISBfac        ....   1.050
   Max. coefficient     DIISMaxC        ....  10.000
 Trust-Rad. Augm. Hess. CNVTRAH         .... auto
   Auto Start mean grad. ratio tolernc. ....  1.125000
   Auto Start start iteration           ....    20
   Auto Start num. interpolation iter.  ....    10
   Max. Number of Micro iterations      ....    16
   Max. Number of Macro iterations      .... Maxiter - #DIIS iter
   Number of Davidson start vectors     ....     2
   Converg. threshold I  (grad. norm)   ....   1.000e-05
   Converg. threshold II (energy diff.) ....   1.000e-08
   Grad. Scal. Fac. for Micro threshold ....   0.100
   Minimum threshold for Micro iter.    ....   0.010
   NR start threshold (gradient norm)   ....   0.001
   Initial trust radius                 ....   0.400
   Minimum AH scaling param. (alpha)    ....   1.000
   Maximum AH scaling param. (alpha)    .... 1000.000
   Orbital update algorithm             .... Taylor
   White noise on init. David. guess    .... on
   Maximum white noise                  ....   0.010
   Quad. conv. algorithm                .... NR
   COSX micro iterations for RIJONX calc.... off
 SOSCF                  CNVSOSCF        .... on
   Start iteration      SOSCFMaxIt      ....   150
   Startup grad/error   SOSCFStart      ....  0.003300
 Level Shifting         CNVShift        .... on
   Level shift para.    LevelShift      ....    0.2500
   Turn off err/grad.   ShiftErr        ....    0.0010
 Zerner damping         CNVZerner       .... off
 Static damping         CNVDamp         .... on
   Fraction old density DampFac         ....    0.7000
   Max. Damping (<1)    DampMax         ....    0.9800
   Min. Damping (>=0)   DampMin         ....    0.0000
   Turn off err/grad.   DampErr         ....    0.1000
 Fernandez-Rico         CNVRico         .... off

SCF Procedure:
 Maximum # iterations   MaxIter         ....   125
 SCF integral mode      SCFMode         .... Direct
   Integral package                     .... SHARK and LIBINT hybrid scheme
 Reset frequency        DirectResetFreq ....    20
 Integral Threshold     Thresh          ....  2.500e-11 Eh
 Primitive CutOff       TCut            ....  2.500e-12 Eh

Convergence Tolerance:
 Convergence Check Mode ConvCheckMode   .... Total+1el-Energy
 Convergence forced     ConvForced      .... 0
 Energy Change          TolE            ....  1.000e-08 Eh
 1-El. energy change                    ....  1.000e-05 Eh
 Orbital Gradient       TolG            ....  1.000e-05
 Orbital Rotation angle TolX            ....  1.000e-05
 DIIS Error             TolErr          ....  5.000e-07


Diagonalization of the overlap matrix:
Smallest eigenvalue                        ... 5.830e-03
Time for diagonalization                   ...    0.002 sec
Threshold for overlap eigenvalues          ... 1.000e-08
Number of eigenvalues below threshold      ... 0
Time for construction of square roots      ...    0.000 sec
Total time needed                          ...    0.002 sec

--------------------------------
INITIAL GUESS: MINIMAL BASIS EHT
--------------------------------
The minimal basis has 41 functions
EHT matrix was diagonalized
Basis set overlap was calculated now projecting the orbitals
Using GuessMode=FMatrix for the initial guess
C*T matrix was formed
Effective Fockian was calculated
Effective Fockian was diagonalized
Initial density was built
                      ------------------
                      INITIAL GUESS DONE
                      ------------------
-------------------
DFT GRID GENERATION
-------------------

General Integration Accuracy     IntAcc      ... 4.159
Radial Grid Type                 RadialGrid  ... OptM3 with GC (2021)
Angular Grid (max. ang.)         AngularGrid ... 3 (Lebedev-194)
Angular grid pruning method      GridPruning ... 4 (adaptive)
Weight generation scheme         WeightScheme... Becke
Basis function cutoff            BFCut       ... 1.0000e-11
Integration weight cutoff        WCut        ... 1.0000e-14
Angular grids for H and He will be reduced by one unit
Partially contracted basis set               ... off
Rotationally invariant grid construction     ... off

Total number of grid points                  ...    34150
Total number of batches                      ...      541
Average number of points per batch           ...       63
Average number of grid points per atom       ...     2009
Time for grid setup =    0.344 sec

--------------------
COSX GRID GENERATION
--------------------

GRIDX 1
-------
General Integration Accuracy     IntAcc      ... 3.816
Radial Grid Type                 RadialGrid  ... OptM3 with GC (2021)
Angular Grid (max. ang.)         AngularGrid ... 1 (Lebedev-50)
Angular grid pruning method      GridPruning ... 4 (adaptive)
Weight generation scheme         WeightScheme... Becke
Basis function cutoff            BFCut       ... 1.0000e-11
Integration weight cutoff        WCut        ... 1.0000e-14
Angular grids for H and He will be reduced by one unit
Partially contracted basis set               ... on
Rotationally invariant grid construction     ... off

Total number of grid points                  ...     8948
Total number of batches                      ...      150
Average number of points per batch           ...       59
Average number of grid points per atom       ...      526
UseSFitting                                  ... on

GRIDX 2
-------
General Integration Accuracy     IntAcc      ... 4.020
Radial Grid Type                 RadialGrid  ... OptM3 with GC (2021)
Angular Grid (max. ang.)         AngularGrid ... 2 (Lebedev-110)
Angular grid pruning method      GridPruning ... 4 (adaptive)
Weight generation scheme         WeightScheme... Becke
Basis function cutoff            BFCut       ... 1.0000e-11
Integration weight cutoff        WCut        ... 1.0000e-14
Angular grids for H and He will be reduced by one unit
Partially contracted basis set               ... on
Rotationally invariant grid construction     ... off

Total number of grid points                  ...    18313
Total number of batches                      ...      296
Average number of points per batch           ...       61
Average number of grid points per atom       ...     1077
UseSFitting                                  ... on

GRIDX 3
-------
General Integration Accuracy     IntAcc      ... 4.338
Radial Grid Type                 RadialGrid  ... OptM3 with GC (2021)
Angular Grid (max. ang.)         AngularGrid ... 3 (Lebedev-194)
Angular grid pruning method      GridPruning ... 4 (adaptive)
Weight generation scheme         WeightScheme... Becke
Basis function cutoff            BFCut       ... 1.0000e-11
Integration weight cutoff        WCut        ... 1.0000e-14
Angular grids for H and He will be reduced by one unit
Partially contracted basis set               ... on
Rotationally invariant grid construction     ... off

Total number of grid points                  ...    40429
Total number of batches                      ...      641
Average number of points per batch           ...       63
Average number of grid points per atom       ...     2378
UseSFitting                                  ... on

Time for X-Grid setup             =    0.853 sec

--------------
SCF ITERATIONS
--------------
ITER       Energy         Delta-E        Max-DP      RMS-DP      [F,P]     Damp
               ***  Starting incremental Fock matrix formation  ***
  0   -447.9114001561   0.000000000000 0.06166424  0.00326519  0.3720106 0.7000
  1   -448.0841835997  -0.172783443671 0.04430494  0.00241258  0.2591773 0.7000
                               ***Turning on DIIS***
  2   -448.2039704425  -0.119786842742 0.03445939  0.00174398  0.1799513 0.7000
  3   -448.2876368523  -0.083666409857 0.02912572  0.00130507  0.1253100 0.7000
  4   -448.3464828945  -0.058846042123 0.06942176  0.00322230  0.0879784 0.0000
                      *** Initiating the SOSCF procedure ***
                           *** Shutting down DIIS ***
                      *** Re-Reading the Fockian *** 
                      *** Removing any level shift *** 
ITER      Energy       Delta-E        Grad      Rot      Max-DP    RMS-DP
  5   -448.48553096  -0.1390480656  0.002117  0.002117  0.003734  0.000179
               *** Restarting incremental Fock matrix formation ***
  6   -448.48570639  -0.0001754334  0.000514  0.000727  0.003277  0.000115
  7   -448.48571643  -0.0000100382  0.000326  0.000295  0.000840  0.000039
  8   -448.48571864  -0.0000022047  0.000055  0.000075  0.000247  0.000011
  9   -448.48571873  -0.0000000904  0.000023  0.000024  0.000125  0.000002
 10   -448.48571873  -0.0000000023  0.000009  0.000006  0.000028  0.000001
                  ***Gradient check signals convergence***
              ***Rediagonalizing the Fockian in SOSCF/NRSCF***

               *****************************************************
               *                     SUCCESS                       *
               *           SCF CONVERGED AFTER  11 CYCLES          *
               *****************************************************

Old exchange energy                            =    -19.040266877 Eh
New exchange energy                            =    -19.040293802 Eh
Exchange energy change after final integration =     -0.000026924 Eh
Total energy after final integration           =   -448.485745650 Eh
Final COS-X integration done in                =     3.012 sec

----------------
TOTAL SCF ENERGY
----------------

Total Energy       :         -448.48574565 Eh          -12203.91757 eV

Components:
Nuclear Repulsion  :          247.14058904 Eh            6725.03732 eV
Electronic Energy  :         -695.62633469 Eh          -18928.95490 eV
One Electron Energy:        -1105.26838367 Eh          -30075.88175 eV
Two Electron Energy:          409.64204899 Eh           11146.92685 eV
Max COSX asymmetry :            0.00000388 Eh               0.00011 eV

Virial components:
Potential Energy   :         -894.79578248 Eh          -24348.63110 eV
Kinetic Energy     :          446.31003683 Eh           12144.71353 eV
Virial Ratio       :            2.00487488


DFT components:
N(Alpha)           :       25.000022924034 electrons
N(Beta)            :       25.000022924034 electrons
N(Total)           :       50.000045848068 electrons
E(X)               :      -25.277783397674 Eh       
E(C)               :       -2.196605832985 Eh       
E(XC)              :      -27.474389230659 Eh       
DFET-embed. en.    :        0.000000000000 Eh       

---------------
SCF CONVERGENCE
---------------

  Last Energy change         ...    3.3116e-09  Tolerance :   1.0000e-08
  Last MAX-Density change    ...    3.1086e-15  Tolerance :   1.0000e-07
  Last RMS-Density change    ...    7.4286e-17  Tolerance :   5.0000e-09
  Last Orbital Gradient      ...    3.8458e-07  Tolerance :   1.0000e-05
  Last Orbital Rotation      ...    4.6562e-07  Tolerance :   1.0000e-05

             **** THE GBW FILE WAS UPDATED (TMS.gbw) ****
             **** DENSITY TMS.scfp WAS UPDATED ****
             **** ENERGY FILE WAS UPDATED (TMS.en.tmp) ****
             **** THE GBW FILE WAS UPDATED (TMS.gbw) ****
             **** DENSITY TMS.scfp WAS UPDATED ****
----------------
ORBITAL ENERGIES
----------------

  NO   OCC          E(Eh)            E(eV) 
   0   2.0000     -66.710971     -1815.2978 
   1   2.0000     -10.411879      -283.3216 
   2   2.0000     -10.411863      -283.3212 
   3   2.0000     -10.411845      -283.3207 
   4   2.0000     -10.411816      -283.3199 
   5   2.0000      -5.485164      -149.2589 
   6   2.0000      -3.776501      -102.7638 
   7   2.0000      -3.776485      -102.7634 
   8   2.0000      -3.776477      -102.7632 
   9   2.0000      -0.801640       -21.8137 
  10   2.0000      -0.749539       -20.3960 
  11   2.0000      -0.749529       -20.3957 
  12   2.0000      -0.749522       -20.3955 
  13   2.0000      -0.505951       -13.7676 
  14   2.0000      -0.467783       -12.7290 
  15   2.0000      -0.467763       -12.7285 
  16   2.0000      -0.467756       -12.7283 
  17   2.0000      -0.449831       -12.2405 
  18   2.0000      -0.449819       -12.2402 
  19   2.0000      -0.428934       -11.6719 
  20   2.0000      -0.428921       -11.6715 
  21   2.0000      -0.428912       -11.6713 
  22   2.0000      -0.335590        -9.1319 
  23   2.0000      -0.335566        -9.1312 
  24   2.0000      -0.335562        -9.1311 
  25   0.0000       0.103575         2.8184 
  26   0.0000       0.141937         3.8623 
  27   0.0000       0.141948         3.8626 
  28   0.0000       0.141996         3.8639 
  29   0.0000       0.174038         4.7358 
  30   0.0000       0.174094         4.7373 
  31   0.0000       0.184507         5.0207 
  32   0.0000       0.184519         5.0210 
  33   0.0000       0.184539         5.0216 
  34   0.0000       0.239522         6.5177 
  35   0.0000       0.239537         6.5181 
  36   0.0000       0.239541         6.5182 
  37   0.0000       0.251234         6.8364 
  38   0.0000       0.251240         6.8366 
  39   0.0000       0.251247         6.8368 
  40   0.0000       0.252263         6.8644 
  41   0.0000       0.463633        12.6161 
  42   0.0000       0.463659        12.6168 
  43   0.0000       0.463719        12.6184 
  44   0.0000       0.475203        12.9309 
  45   0.0000       0.480462        13.0740 
  46   0.0000       0.480576        13.0771 
  47   0.0000       0.590410        16.0659 
  48   0.0000       0.590550        16.0697 
  49   0.0000       0.590612        16.0714 
  50   0.0000       0.613874        16.7043 
  51   0.0000       0.658147        17.9091 
  52   0.0000       0.658225        17.9112 
  53   0.0000       0.658252        17.9119 
  54   0.0000       0.664763        18.0891 
  55   0.0000       0.664801        18.0902 
  56   0.0000       0.742337        20.2000 
  57   0.0000       0.742445        20.2030 
  58   0.0000       0.742474        20.2037 
  59   0.0000       0.953711        25.9518 
  60   0.0000       0.953733        25.9524 
  61   0.0000       0.953793        25.9540 
  62   0.0000       1.012940        27.5635 
  63   0.0000       1.012953        27.5639 
  64   0.0000       1.012971        27.5643 
  65   0.0000       1.027616        27.9629 
  66   0.0000       1.027632        27.9633 
  67   0.0000       1.027667        27.9643 
  68   0.0000       1.031857        28.0783 
  69   0.0000       1.092222        29.7209 
  70   0.0000       1.092244        29.7215 
  71   0.0000       1.118352        30.4319 
  72   0.0000       1.118371        30.4324 
  73   0.0000       1.118401        30.4332 
  74   0.0000       1.326305        36.0906 
  75   0.0000       1.326371        36.0924 
  76   0.0000       1.326452        36.0946 
  77   0.0000       1.493758        40.6472 
  78   0.0000       1.735620        47.2286 
  79   0.0000       1.735672        47.2300 
  80   0.0000       1.735691        47.2305 
  81   0.0000       1.892644        51.5015 
  82   0.0000       1.892723        51.5036 
  83   0.0000       1.939593        52.7790 
  84   0.0000       1.939620        52.7798 
  85   0.0000       1.939667        52.7810 
  86   0.0000       2.118515        57.6477 
  87   0.0000       2.255178        61.3665 
  88   0.0000       2.255195        61.3670 
  89   0.0000       2.255239        61.3682 
  90   0.0000       2.319359        63.1130 
  91   0.0000       2.319364        63.1131 
  92   0.0000       2.319415        63.1145 
  93   0.0000       2.328225        63.3542 
  94   0.0000       2.328278        63.3557 
  95   0.0000       2.328297        63.3562 
  96   0.0000       2.358389        64.1750 
  97   0.0000       2.358421        64.1759 
  98   0.0000      13.706810       372.9813 
  99   0.0000      13.756461       374.3323 
 100   0.0000      13.756473       374.3327 
 101   0.0000      13.756488       374.3331 

                    ********************************
                    * MULLIKEN POPULATION ANALYSIS *
                    ********************************

-----------------------
MULLIKEN ATOMIC CHARGES
-----------------------
   0 Si:    0.975548
   1 C :   -0.912861
   2 C :   -0.912544
   3 C :   -0.912527
   4 C :   -0.912789
   5 H :    0.222925
   6 H :    0.222981
   7 H :    0.222958
   8 H :    0.222951
   9 H :    0.222855
  10 H :    0.222912
  11 H :    0.222882
  12 H :    0.222907
  13 H :    0.222909
  14 H :    0.222976
  15 H :    0.223023
  16 H :    0.222893
Sum of atomic charges:    0.0000000

--------------------------------
MULLIKEN REDUCED ORBITAL CHARGES
--------------------------------
  0 Sis       :     4.933747  s :     4.933747
      pz      :     2.598499  p :     7.795316
      px      :     2.598323
      py      :     2.598494
      dz2     :     0.067961  d :     0.295388
      dxz     :     0.027616
      dyz     :     0.078702
      dx2y2   :     0.046317
      dxy     :     0.074793
  1 C s       :     3.421415  s :     3.421415
      pz      :     1.117527  p :     3.467210
      px      :     1.171048
      py      :     1.178636
      dz2     :     0.006032  d :     0.024236
      dxz     :     0.000710
      dyz     :     0.009326
      dx2y2   :     0.003936
      dxy     :     0.004231
  2 C s       :     3.421414  s :     3.421414
      pz      :     1.117280  p :     3.466894
      px      :     1.214032
      py      :     1.135581
      dz2     :     0.006005  d :     0.024237
      dxz     :     0.000774
      dyz     :     0.009315
      dx2y2   :     0.001834
      dxy     :     0.006309
  3 C s       :     3.421415  s :     3.421415
      pz      :     1.201573  p :     3.466875
      px      :     1.118935
      py      :     1.146367
      dz2     :     0.005435  d :     0.024237
      dxz     :     0.000574
      dyz     :     0.006019
      dx2y2   :     0.003607
      dxy     :     0.008602
  4 C s       :     3.421351  s :     3.421351
      pz      :     1.186206  p :     3.467204
      px      :     1.118816
      py      :     1.162181
      dz2     :     0.006637  d :     0.024234
      dxz     :     0.000616
      dyz     :     0.005152
      dx2y2   :     0.003235
      dxy     :     0.008593
  5 H s       :     0.777075  s :     0.777075
  6 H s       :     0.777019  s :     0.777019
  7 H s       :     0.777042  s :     0.777042
  8 H s       :     0.777049  s :     0.777049
  9 H s       :     0.777145  s :     0.777145
 10 H s       :     0.777088  s :     0.777088
 11 H s       :     0.777118  s :     0.777118
 12 H s       :     0.777093  s :     0.777093
 13 H s       :     0.777091  s :     0.777091
 14 H s       :     0.777024  s :     0.777024
 15 H s       :     0.776977  s :     0.776977
 16 H s       :     0.777107  s :     0.777107


                     *******************************
                     * LOEWDIN POPULATION ANALYSIS *
                     *******************************

----------------------
LOEWDIN ATOMIC CHARGES
----------------------
   0 Si:    0.542852
   1 C :   -0.563647
   2 C :   -0.563527
   3 C :   -0.563518
   4 C :   -0.563608
   5 H :    0.142616
   6 H :    0.142636
   7 H :    0.142637
   8 H :    0.142627
   9 H :    0.142591
  10 H :    0.142621
  11 H :    0.142614
  12 H :    0.142609
  13 H :    0.142617
  14 H :    0.142627
  15 H :    0.142649
  16 H :    0.142606

-------------------------------
LOEWDIN REDUCED ORBITAL CHARGES
-------------------------------
  0 Sis       :     4.821293  s :     4.821293
      pz      :     2.718190  p :     8.154510
      px      :     2.718152
      py      :     2.718167
      dz2     :     0.111136  d :     0.481345
      dxz     :     0.043594
      dyz     :     0.129123
      dx2y2   :     0.074911
      dxy     :     0.122582
  1 C s       :     3.002541  s :     3.002541
      pz      :     1.125967  p :     3.519156
      px      :     1.191911
      py      :     1.201278
      dz2     :     0.010131  d :     0.041949
      dxz     :     0.001085
      dyz     :     0.015491
      dx2y2   :     0.006910
      dxy     :     0.008332
  2 C s       :     3.002550  s :     3.002550
      pz      :     1.125588  p :     3.519023
      px      :     1.245251
      py      :     1.148184
      dz2     :     0.010092  d :     0.041954
      dxz     :     0.001509
      dyz     :     0.015138
      dx2y2   :     0.003847
      dxy     :     0.011369
  3 C s       :     3.002551  s :     3.002551
      pz      :     1.229771  p :     3.519012
      px      :     1.127619
      py      :     1.161622
      dz2     :     0.009912  d :     0.041955
      dxz     :     0.001133
      dyz     :     0.011068
      dx2y2   :     0.005783
      dxy     :     0.014059
  4 C s       :     3.002529  s :     3.002529
      pz      :     1.210727  p :     3.519129
      px      :     1.127357
      py      :     1.181045
      dz2     :     0.011546  d :     0.041950
      dxz     :     0.001073
      dyz     :     0.009806
      dx2y2   :     0.005359
      dxy     :     0.014166
  5 H s       :     0.857384  s :     0.857384
  6 H s       :     0.857364  s :     0.857364
  7 H s       :     0.857363  s :     0.857363
  8 H s       :     0.857373  s :     0.857373
  9 H s       :     0.857409  s :     0.857409
 10 H s       :     0.857379  s :     0.857379
 11 H s       :     0.857386  s :     0.857386
 12 H s       :     0.857391  s :     0.857391
 13 H s       :     0.857383  s :     0.857383
 14 H s       :     0.857373  s :     0.857373
 15 H s       :     0.857351  s :     0.857351
 16 H s       :     0.857394  s :     0.857394


                      *****************************
                      * MAYER POPULATION ANALYSIS *
                      *****************************

  NA   - Mulliken gross atomic population
  ZA   - Total nuclear charge
  QA   - Mulliken gross atomic charge
  VA   - Mayer's total valence
  BVA  - Mayer's bonded valence
  FA   - Mayer's free valence

  ATOM       NA         ZA         QA         VA         BVA        FA
  0 Si    13.0245    14.0000     0.9755     3.9146     3.9146    -0.0000
  1 C      6.9129     6.0000    -0.9129     3.6956     3.6956    -0.0000
  2 C      6.9125     6.0000    -0.9125     3.6958     3.6958     0.0000
  3 C      6.9125     6.0000    -0.9125     3.6957     3.6957    -0.0000
  4 C      6.9128     6.0000    -0.9128     3.6958     3.6958    -0.0000
  5 H      0.7771     1.0000     0.2229     0.9150     0.9150    -0.0000
  6 H      0.7770     1.0000     0.2230     0.9150     0.9150    -0.0000
  7 H      0.7770     1.0000     0.2230     0.9151     0.9151     0.0000
  8 H      0.7770     1.0000     0.2230     0.9150     0.9150    -0.0000
  9 H      0.7771     1.0000     0.2229     0.9151     0.9151    -0.0000
 10 H      0.7771     1.0000     0.2229     0.9150     0.9150     0.0000
 11 H      0.7771     1.0000     0.2229     0.9151     0.9151     0.0000
 12 H      0.7771     1.0000     0.2229     0.9150     0.9150    -0.0000
 13 H      0.7771     1.0000     0.2229     0.9151     0.9151    -0.0000
 14 H      0.7770     1.0000     0.2230     0.9150     0.9150     0.0000
 15 H      0.7770     1.0000     0.2230     0.9150     0.9150     0.0000
 16 H      0.7771     1.0000     0.2229     0.9151     0.9151    -0.0000

  Mayer bond orders larger than 0.100000
B(  0-Si,  1-C ) :   0.9542 B(  0-Si,  2-C ) :   0.9543 B(  0-Si,  3-C ) :   0.9543 
B(  0-Si,  4-C ) :   0.9544 B(  1-C ,  5-H ) :   0.9135 B(  1-C ,  6-H ) :   0.9136 
B(  1-C ,  7-H ) :   0.9136 B(  2-C ,  8-H ) :   0.9136 B(  2-C ,  9-H ) :   0.9136 
B(  2-C , 10-H ) :   0.9136 B(  3-C , 11-H ) :   0.9136 B(  3-C , 12-H ) :   0.9136 
B(  3-C , 13-H ) :   0.9137 B(  4-C , 14-H ) :   0.9136 B(  4-C , 15-H ) :   0.9135 
B(  4-C , 16-H ) :   0.9136 

-------
TIMINGS
-------

Total SCF time: 0 days 0 hours 0 min 22 sec 

Total time                  ....      22.476 sec
Sum of individual times     ....      22.355 sec  ( 99.5%)

Fock matrix formation       ....      21.130 sec  ( 94.0%)
  Split-RI-J                ....       1.743 sec  (  8.3% of F)
  Chain of spheres X        ....      16.679 sec  ( 78.9% of F)
  XC integration            ....       2.723 sec  ( 12.9% of F)
    Basis function eval.    ....       1.225 sec  ( 45.0% of XC)
    Density eval.           ....       0.479 sec  ( 17.6% of XC)
    XC-Functional eval.     ....       0.396 sec  ( 14.6% of XC)
    XC-Potential eval.      ....       0.492 sec  ( 18.1% of XC)
Diagonalization             ....       0.010 sec  (  0.0%)
Density matrix formation    ....       0.001 sec  (  0.0%)
Population analysis         ....       0.002 sec  (  0.0%)
Initial guess               ....       0.008 sec  (  0.0%)
Orbital Transformation      ....       0.000 sec  (  0.0%)
Orbital Orthonormalization  ....       0.000 sec  (  0.0%)
DIIS solution               ....       0.002 sec  (  0.0%)
SOSCF solution              ....       0.005 sec  (  0.0%)
Grid generation             ....       1.196 sec  (  5.3%)

Maximum memory used throughout the entire SCF-calculation: 56.6 MB


-------------------------------------------------------------------------------
                          DFT DISPERSION CORRECTION                            
                                                                               
                              DFTD3 V3.1  Rev 1                                
                          USING Becke-Johnson damping                          
-------------------------------------------------------------------------------
The PBEh-3c composite method is recognized
Using three-body term ABC
Active option DFTDOPT                   ...         4   

molecular C6(AA) [au] = 2519.666514 


            DFT-D V3
 parameters
 s6 scaling factor         :     1.0000 
 a1 scaling factor         :     0.4860 
 s8 scaling factor         :     0.0000 
 a2 scaling factor         :     4.5000 
 Damping factor alpha9(ATM):    16.0000 
 ad hoc parameters k1-k3   :    16.0000     1.3333    -4.0000 

 Edisp/kcal,au: -4.753280045460  -0.007574833106 
 E6   /kcal   :  -4.795618586 
 E8   /kcal   :  -0.000000000 
 E6(ABC)      :   0.042338540 
 % E8         :   0.000000000 
 % E6(ABC)    :  -0.890722617 

-------------------------   ----------------
Dispersion correction           -0.007574833
-------------------------   ----------------

------------------   -----------------
gCP correction             0.014384782
------------------   -----------------

-------------------------   --------------------
FINAL SINGLE POINT ENERGY      -448.478935701443
-------------------------   --------------------

------------------------------------------------------------------------------
                         ORCA SCF GRADIENT CALCULATION
------------------------------------------------------------------------------

 ... reading COSX grid (gridx3)
Gradient of the Kohn-Sham DFT energy:
Kohn-Sham wavefunction type      ... RKS
Hartree-Fock exchange scaling    ...    0.420
Number of operators              ...    1
Number of atoms                  ...   17
Basis set dimensions             ...  102
Integral neglect threshold       ... 2.5e-11
Integral primitive cutoff        ... 2.5e-12
SHARK Integral package           ... ON

Nuc. rep. gradient       (SHARK) ... done (  0.0 sec)
HCore & Overlap gradient (SHARK) ... done (  0.1 sec)
RI-J gradient            (SHARK) ... done (  0.5 sec)
COSX-gradient                    ... done (  3.8 sec)
Exchange-correlation gradient    ... done
Dispersion correction            ... done
gCP correction                   ... done

------------------
CARTESIAN GRADIENT
------------------

   1   Si  :    0.000040225   -0.000103106   -0.000055493
   2   C   :   -0.005431935   -0.005689001   -0.000337762
   3   C   :    0.007388568   -0.003126687   -0.000222392
   4   C   :   -0.000867383    0.004124826    0.006544598
   5   C   :   -0.001152101    0.004562961   -0.006183858
   6   H   :   -0.005242599    0.004933705   -0.011226041
   7   H   :    0.009197290   -0.009549815   -0.000643796
   8   H   :   -0.005455932    0.003056661    0.011734380
   9   H   :    0.003447642    0.006606605   -0.011011094
  10   H   :    0.003258804    0.004946170    0.011942840
  11   H   :   -0.004653583   -0.012499695   -0.000926985
  12   H   :   -0.002218586    0.011541598   -0.006251123
  13   H   :   -0.010319636   -0.007512008    0.003871948
  14   H   :    0.012285604   -0.002811668    0.004319085
  15   H   :   -0.002366029    0.010491348    0.007882438
  16   H   :    0.012329442   -0.002209830   -0.004590072
  17   H   :   -0.010226885   -0.006809007   -0.005066214

Difference to translation invariance:
           :    0.0000129071   -0.0000469440   -0.0002195412

Difference to rotation invariance:
           :    0.0022125279   -0.0022880252    0.0000310276

Norm of the cartesian gradient     ...    0.0487495542
RMS gradient                       ...    0.0068263030
MAX gradient                       ...    0.0124996955

-------
TIMINGS
-------

Total SCF gradient time            ...        5.907 sec

One electron gradient       ....       0.125 sec  (  2.1%)
RI-J Coulomb gradient       ....       0.476 sec  (  8.1%)
COSX gradient               ....       3.751 sec  ( 63.5%)
XC gradient                 ....       1.265 sec  ( 21.4%)

Maximum memory used throughout the entire SCFGRAD-calculation: 44.5 MB
------------------------------------------------------------------------------
                         ORCA GEOMETRY RELAXATION STEP
------------------------------------------------------------------------------

Reading the OPT-File                    .... done
Getting information on internals        .... done
Copying old internal coords+grads       .... done
Making the new internal coordinates     .... (new redundants).... done
Validating the new internal coordinates .... (new redundants).... done
Calculating the B-matrix                .... done
Calculating the G,G- and P matrices     .... done
Transforming gradient to internals      .... done
Projecting the internal gradient        .... done
Number of atoms                         ....  17
Number of internal coordinates          ....  82
Current Energy                          ....  -448.478935701 Eh
Current gradient norm                   ....     0.048749554 Eh/bohr
Maximum allowed component of the step   ....  0.300
Current trust radius                    ....  0.300
Evaluating the initial hessian          ....  (Almloef) done
Projecting the Hessian                  .... done
Forming the augmented Hessian           .... done
Diagonalizing the augmented Hessian     .... done
Last element of RFO vector              ....  0.988413370
Lowest eigenvalues of augmented Hessian:
 -0.008243610  0.003931833  0.003931838  0.003931880  0.003932227
Length of the computed step             ....  0.153565370
The final length of the internal step   ....  0.153565370
Converting the step to cartesian space:
 Initial RMS(Int)=    0.0169584581
Transforming coordinates:
 Iter   0:  RMS(Cart)=    0.0303568127 RMS(Int)=    1.8355965325
 Iter   1:  RMS(Cart)=    0.0004567644 RMS(Int)=    0.0002646670
 Iter   2:  RMS(Cart)=    0.0000145177 RMS(Int)=    0.0000090057
 Iter   3:  RMS(Cart)=    0.0000003753 RMS(Int)=    0.0000002380
 Iter   4:  RMS(Cart)=    0.0000000090 RMS(Int)=    0.0000000057
done
Storing new coordinates                 .... done

                                .--------------------.
          ----------------------|Geometry convergence|-------------------------
          Item                value                   Tolerance       Converged
          ---------------------------------------------------------------------
          RMS gradient        0.0059665568            0.0001000000      NO
          MAX gradient        0.0123852192            0.0003000000      NO
          RMS step            0.0169584581            0.0020000000      NO
          MAX step            0.0360360135            0.0040000000      NO
          ........................................................
          Max(Bonds)      0.0191      Max(Angles)    0.96
          Max(Dihed)        0.12      Max(Improp)    0.00
          ---------------------------------------------------------------------

The optimization has not yet converged - more geometry cycles are needed


    ---------------------------------------------------------------------------
                         Redundant Internal Coordinates
                            (Angstroem and degrees)

        Definition                    Value    dE/dq     Step     New-Value
    ----------------------------------------------------------------------------
     1. B(C   1,Si  0)                1.8666 -0.010031  0.0111    1.8777   
     2. B(C   2,Si  0)                1.8666 -0.010276  0.0113    1.8779   
     3. B(C   3,Si  0)                1.8666 -0.010134  0.0112    1.8778   
     4. B(C   4,Si  0)                1.8666 -0.010046  0.0111    1.8777   
     5. B(H   5,C   1)                1.1093  0.012385 -0.0191    1.0902   
     6. B(H   6,C   1)                1.1093  0.012255 -0.0189    1.0904   
     7. B(H   7,C   1)                1.1093  0.012213 -0.0188    1.0905   
     8. B(H   8,C   2)                1.1093  0.012238 -0.0188    1.0905   
     9. B(H   9,C   2)                1.1093  0.012328 -0.0190    1.0903   
    10. B(H  10,C   2)                1.1093  0.012339 -0.0190    1.0903   
    11. B(H  11,C   3)                1.1093  0.012243 -0.0189    1.0905   
    12. B(H  12,C   3)                1.1093  0.012333 -0.0190    1.0903   
    13. B(H  13,C   3)                1.1093  0.012274 -0.0189    1.0904   
    14. B(H  14,C   4)                1.1093  0.012365 -0.0190    1.0903   
    15. B(H  15,C   4)                1.1093  0.012300 -0.0189    1.0904   
    16. B(H  16,C   4)                1.1093  0.012191 -0.0188    1.0905   
    17. A(C   3,Si  0,C   4)          109.47 -0.000031   -0.01    109.47   
    18. A(C   1,Si  0,C   4)          109.47  0.000153   -0.04    109.43   
    19. A(C   1,Si  0,C   2)          109.47 -0.000090    0.03    109.50   
    20. A(C   2,Si  0,C   4)          109.47 -0.000103    0.04    109.51   
    21. A(C   2,Si  0,C   3)          109.47  0.000098   -0.01    109.46   
    22. A(C   1,Si  0,C   3)          109.47 -0.000028   -0.01    109.46   
    23. A(Si  0,C   1,H   5)          109.45 -0.005288    0.92    110.37   
    24. A(H   6,C   1,H   7)          109.49  0.005379   -0.94    108.56   
    25. A(H   5,C   1,H   7)          109.49  0.005356   -0.93    108.56   
    26. A(Si  0,C   1,H   7)          109.45 -0.005437    0.94    110.39   
    27. A(H   5,C   1,H   6)          109.49  0.005308   -0.92    108.57   
    28. A(Si  0,C   1,H   6)          109.45 -0.005332    0.93    110.38   
    29. A(Si  0,C   2,H   9)          109.45 -0.005360    0.93    110.38   
    30. A(Si  0,C   2,H   8)          109.45 -0.005423    0.94    110.39   
    31. A(H   8,C   2,H   9)          109.49  0.005381   -0.93    108.56   
    32. A(H   9,C   2,H  10)          109.49  0.005363   -0.93    108.56   
    33. A(H   8,C   2,H  10)          109.49  0.005418   -0.95    108.55   
    34. A(Si  0,C   2,H  10)          109.45 -0.005393    0.94    110.39   
    35. A(H  12,C   3,H  13)          109.49  0.005453   -0.94    108.55   
    36. A(H  11,C   3,H  13)          109.49  0.005380   -0.94    108.55   
    37. A(Si  0,C   3,H  13)          109.45 -0.005441    0.95    110.39   
    38. A(H  11,C   3,H  12)          109.49  0.005408   -0.94    108.55   
    39. A(Si  0,C   3,H  12)          109.45 -0.005530    0.96    110.41   
    40. A(Si  0,C   3,H  11)          109.45 -0.005283    0.92    110.37   
    41. A(H  15,C   4,H  16)          109.49  0.005430   -0.95    108.54   
    42. A(H  14,C   4,H  16)          109.50  0.005376   -0.93    108.56   
    43. A(Si  0,C   4,H  16)          109.45 -0.005375    0.93    110.38   
    44. A(H  14,C   4,H  15)          109.49  0.005385   -0.93    108.56   
    45. A(Si  0,C   4,H  15)          109.45 -0.005420    0.94    110.39   
    46. A(Si  0,C   4,H  14)          109.45 -0.005411    0.94    110.39   
    47. D(H   6,C   1,Si  0,C   4)     60.00  0.000041   -0.02     59.98   
    48. D(H   7,C   1,Si  0,C   4)    -60.00  0.000042   -0.02    -60.02   
    49. D(H   7,C   1,Si  0,C   3)   -180.00  0.000003    0.01   -179.99   
    50. D(H   6,C   1,Si  0,C   2)    180.00 -0.000047    0.01    180.01   
    51. D(H   5,C   1,Si  0,C   4)   -180.00  0.000043   -0.02   -180.02   
    52. D(H   6,C   1,Si  0,C   3)    -60.00  0.000002    0.01    -59.99   
    53. D(H   5,C   1,Si  0,C   3)     60.00  0.000005    0.01     60.01   
    54. D(H   5,C   1,Si  0,C   2)    -60.00 -0.000044    0.01    -59.99   
    55. D(H   7,C   1,Si  0,C   2)     60.00 -0.000046    0.01     60.01   
    56. D(H   9,C   2,Si  0,C   3)   -180.00  0.000017   -0.10   -180.10   
    57. D(H   8,C   2,Si  0,C   4)   -180.00  0.000050   -0.11   -180.11   
    58. D(H   8,C   2,Si  0,C   3)    -60.00  0.000010   -0.10    -60.10   
    59. D(H   8,C   2,Si  0,C   1)     60.00 -0.000019   -0.10     59.90   
    60. D(H   9,C   2,Si  0,C   4)     60.00  0.000058   -0.11     59.89   
    61. D(H  10,C   2,Si  0,C   4)    -60.00  0.000068   -0.12    -60.12   
    62. D(H  10,C   2,Si  0,C   3)     60.00  0.000028   -0.11     59.89   
    63. D(H  10,C   2,Si  0,C   1)    180.00 -0.000001   -0.11    179.89   
    64. D(H   9,C   2,Si  0,C   1)    -60.00 -0.000012   -0.10    -60.10   
    65. D(H  13,C   3,Si  0,C   2)    180.00  0.000018    0.03    180.03   
    66. D(H  13,C   3,Si  0,C   1)     60.00  0.000085    0.00     60.00   
    67. D(H  12,C   3,Si  0,C   4)     60.00 -0.000101    0.08     60.08   
    68. D(H  12,C   3,Si  0,C   2)    -60.00 -0.000016    0.04    -59.96   
    69. D(H  12,C   3,Si  0,C   1)   -180.00  0.000050    0.02   -179.98   
    70. D(H  11,C   3,Si  0,C   4)    180.00 -0.000093    0.07    180.07   
    71. D(H  11,C   3,Si  0,C   2)     60.00 -0.000009    0.04     60.04   
    72. D(H  13,C   3,Si  0,C   4)    -60.00 -0.000067    0.06    -59.94   
    73. D(H  11,C   3,Si  0,C   1)    -60.00  0.000058    0.01    -59.99   
    74. D(H  15,C   4,Si  0,C   1)    -60.00 -0.000016    0.02    -59.98   
    75. D(H  14,C   4,Si  0,C   3)    180.00 -0.000006   -0.01    179.99   
    76. D(H  14,C   4,Si  0,C   2)    -60.00  0.000033   -0.00    -60.00   
    77. D(H  14,C   4,Si  0,C   1)     60.00 -0.000047    0.03     60.03   
    78. D(H  16,C   4,Si  0,C   3)    -60.00 -0.000021    0.00    -60.00   
    79. D(H  16,C   4,Si  0,C   2)     60.00  0.000018    0.01     60.01   
    80. D(H  16,C   4,Si  0,C   1)   -180.00 -0.000061    0.04   -179.96   
    81. D(H  15,C   4,Si  0,C   3)     60.00  0.000025   -0.02     59.98   
    82. D(H  15,C   4,Si  0,C   2)   -180.00  0.000064   -0.02   -180.02   
    ----------------------------------------------------------------------------

         *************************************************************
         *                GEOMETRY OPTIMIZATION CYCLE   2            *
         *************************************************************
---------------------------------
CARTESIAN COORDINATES (ANGSTROEM)
---------------------------------
  Si    -2.020934    1.206485   -0.016033
  C     -0.739268    2.574430    0.092221
  C     -3.742506    1.955343    0.029616
  C     -1.792460    0.260740   -1.622097
  C     -1.808101    0.034863    1.435769
  H     -0.849010    3.264176   -0.744929
  H      0.266838    2.154743    0.066652
  H     -0.858317    3.133867    1.020696
  H     -3.880960    2.640472   -0.807365
  H     -3.891926    2.507183    0.958036
  H     -4.498815    1.172597   -0.034348
  H     -1.911881    0.928514   -2.475866
  H     -2.530159   -0.538247   -1.700946
  H     -0.796583   -0.181351   -1.664214
  H     -1.937752    0.569258    2.377203
  H     -0.812131   -0.408747    1.422883
  H     -2.545423   -0.767188    1.387602

----------------------------
CARTESIAN COORDINATES (A.U.)
----------------------------
  NO LB      ZA    FRAG     MASS         X           Y           Z
   0 Si   14.0000    0    28.086   -3.819011    2.279926   -0.030298
   1 C     6.0000    0    12.011   -1.397014    4.864969    0.174273
   2 C     6.0000    0    12.011   -7.072311    3.695063    0.055967
   3 C     6.0000    0    12.011   -3.387259    0.492727   -3.065319
   4 C     6.0000    0    12.011   -3.416816    0.065881    2.713211
   5 H     1.0000    0     1.008   -1.604397    6.168399   -1.407712
   6 H     1.0000    0     1.008    0.504251    4.071875    0.125954
   7 H     1.0000    0     1.008   -1.621984    5.922151    1.928835
   8 H     1.0000    0     1.008   -7.333952    4.989768   -1.525699
   9 H     1.0000    0     1.008   -7.354674    4.737890    1.810426
  10 H     1.0000    0     1.008   -8.501528    2.215888   -0.064908
  11 H     1.0000    0     1.008   -3.612931    1.754638   -4.678709
  12 H     1.0000    0     1.008   -4.781309   -1.017139   -3.214322
  13 H     1.0000    0     1.008   -1.505325   -0.342705   -3.144909
  14 H     1.0000    0     1.008   -3.661821    1.075742    4.492262
  15 H     1.0000    0     1.008   -1.534706   -0.772419    2.688859
  16 H     1.0000    0     1.008   -4.810153   -1.449776    2.622187

--------------------------------
INTERNAL COORDINATES (ANGSTROEM)
--------------------------------
 Si     0   0   0     0.000000000000     0.00000000     0.00000000
 C      1   0   0     1.877674643140     0.00000000     0.00000000
 C      1   2   0     1.877946682357   109.50137285     0.00000000
 C      1   2   3     1.877784562105   109.46216333   120.00063883
 C      1   2   3     1.877691249725   109.42882344   239.96294177
 H      2   1   3     1.090235588223   110.36095429   300.01314712
 H      2   1   3     1.090431304331   110.36782567   180.01216622
 H      2   1   3     1.090507836943   110.38407335    60.01367692
 H      3   1   2     1.090462582544   110.38207928    59.90485924
 H      3   1   2     1.090328931699   110.37433609   299.90045237
 H      3   1   2     1.090314617836   110.37714939   179.89425549
 H      4   1   2     1.090461525176   110.35897255   300.01343231
 H      4   1   2     1.090319646336   110.40204003   180.01683860
 H      4   1   2     1.090407890807   110.38690296    60.00209532
 H      5   1   2     1.090268126418   110.38447418    60.03242919
 H      5   1   2     1.090371873594   110.38055837   300.01776053
 H      5   1   2     1.090527477849   110.37260946   180.04116996

---------------------------
INTERNAL COORDINATES (A.U.)
---------------------------
 Si     0   0   0     0.000000000000     0.00000000     0.00000000
 C      1   0   0     3.548290844142     0.00000000     0.00000000
 C      1   2   0     3.548804923760   109.50137285     0.00000000
 C      1   2   3     3.548498560883   109.46216333   120.00063883
 C      1   2   3     3.548322226041   109.42882344   239.96294177
 H      2   1   3     2.060246683197   110.36095429   300.01314712
 H      2   1   3     2.060616533041   110.36782567   180.01216622
 H      2   1   3     2.060761158717   110.38407335    60.01367692
 H      3   1   2     2.060675640296   110.38207928    59.90485924
 H      3   1   2     2.060423076803   110.37433609   299.90045237
 H      3   1   2     2.060396027522   110.37714939   179.89425549
 H      4   1   2     2.060673642161   110.35897255   300.01343231
 H      4   1   2     2.060405530009   110.40204003   180.01683860
 H      4   1   2     2.060572287892   110.38690296    60.00209532
 H      5   1   2     2.060308171474   110.38447418    60.03242919
 H      5   1   2     2.060504225224   110.38055837   300.01776053
 H      5   1   2     2.060798274651   110.37260946   180.04116996

------------------------------------------------------------------------------
                   ___                                                        
                  /   \      - P O W E R E D   B Y -                         
                 /     \                                                     
                 |  |  |   _    _      __       _____    __    __             
                 |  |  |  | |  | |    /  \     |  _  \  |  |  /  |          
                  \  \/   | |  | |   /    \    | | | |  |  | /  /          
                 / \  \   | |__| |  /  /\  \   | |_| |  |  |/  /          
                |  |  |   |  __  | /  /__\  \  |    /   |      \           
                |  |  |   | |  | | |   __   |  |    \   |  |\   \          
                \     /   | |  | | |  |  |  |  | |\  \  |  | \   \       
                 \___/    |_|  |_| |__|  |__|  |_| \__\ |__|  \__/        
                                                                              
                      - O R C A' S   B I G   F R I E N D -                    
                                      &                                       
                       - I N T E G R A L  F E E D E R -                       
                                                                              
 v1 FN, 2020, v2 2021                                                         
------------------------------------------------------------------------------


Reading SHARK input file TMS.SHARKINP.tmp ... ok
----------------------
SHARK INTEGRAL PACKAGE
----------------------

Number of atoms                             ...     17
Number of basis functions                   ...    102
Number of shells                            ...     60
Maximum angular momentum                    ...      2
Integral batch strategy                     ... SHARK/LIBINT Hybrid
RI-J (if used) integral strategy            ... SPLIT-RIJ (Revised 2003 algorithm where possible)
Printlevel                                  ...      1
Contraction scheme used                     ... SEGMENTED contraction
Coulomb Range Separation                    ... NOT USED
Exchange Range Separation                   ... NOT USED
Finite Nucleus Model                        ... NOT USED
Auxiliary Coulomb fitting basis             ... AVAILABLE
   # of basis functions in Aux-J            ...    379
   # of shells in Aux-J                     ...    137
   Maximum angular momentum in Aux-J        ...      4
Auxiliary J/K fitting basis                 ... NOT available
Auxiliary Correlation fitting basis         ... NOT available
Auxiliary 'external' fitting basis          ... NOT available
Integral threshold                          ...     2.500000e-11
Primitive cut-off                           ...     2.500000e-12
Primitive pair pre-selection threshold      ...     2.500000e-12

Calculating pre-screening integrals         ... done (  0.0 sec) Dimension = 60
Organizing shell pair data                  ... done (  0.0 sec)
Shell pair information
Total number of shell pairs                 ...      1830
Shell pairs after pre-screening             ...      1768
Total number of primitive shell pairs       ...      7132
Primitive shell pairs kept                  ...      4954
          la=0 lb=0:    928 shell pairs
          la=1 lb=0:    484 shell pairs
          la=1 lb=1:     66 shell pairs
          la=2 lb=0:    220 shell pairs
          la=2 lb=1:     55 shell pairs
          la=2 lb=2:     15 shell pairs

Calculating one electron integrals          ... done (  0.0 sec)
Calculating RI/J V-Matrix + Cholesky decomp.... done (  0.0 sec)
Calculating Nuclear repulsion               ... done (  0.0 sec) ENN=    246.634875407715 Eh

SHARK setup successfully completed in   0.1 seconds

Maximum memory used throughout the entire GTOINT-calculation: 11.8 MB

Diagonalization of the overlap matrix:
Smallest eigenvalue                        ... 6.116e-03
Time for diagonalization                   ...    0.002 sec
Threshold for overlap eigenvalues          ... 1.000e-08
Number of eigenvalues below threshold      ... 0
Time for construction of square roots      ...    0.000 sec
Total time needed                          ...    0.002 sec

-------------------
DFT GRID GENERATION
-------------------

General Integration Accuracy     IntAcc      ... 4.159
Radial Grid Type                 RadialGrid  ... OptM3 with GC (2021)
Angular Grid (max. ang.)         AngularGrid ... 3 (Lebedev-194)
Angular grid pruning method      GridPruning ... 4 (adaptive)
Weight generation scheme         WeightScheme... Becke
Basis function cutoff            BFCut       ... 1.0000e-11
Integration weight cutoff        WCut        ... 1.0000e-14
Angular grids for H and He will be reduced by one unit
Partially contracted basis set               ... off
Rotationally invariant grid construction     ... off

Total number of grid points                  ...    34157
Total number of batches                      ...      540
Average number of points per batch           ...       63
Average number of grid points per atom       ...     2009
Time for grid setup =    0.231 sec

--------------------
COSX GRID GENERATION
--------------------

GRIDX 1
-------
General Integration Accuracy     IntAcc      ... 3.816
Radial Grid Type                 RadialGrid  ... OptM3 with GC (2021)
Angular Grid (max. ang.)         AngularGrid ... 1 (Lebedev-50)
Angular grid pruning method      GridPruning ... 4 (adaptive)
Weight generation scheme         WeightScheme... Becke
[...]

Old exchange energy                            =    -19.063281816 Eh
New exchange energy                            =    -19.063311019 Eh
Exchange energy change after final integration =     -0.000029203 Eh
Total energy after final integration           =   -448.490518486 Eh
Final COS-X integration done in                =     2.830 sec

----------------
TOTAL SCF ENERGY
----------------

Total Energy       :         -448.49051849 Eh          -12204.04745 eV

Components:
Nuclear Repulsion  :          245.28821258 Eh            6674.63160 eV
Electronic Energy  :         -693.77873107 Eh          -18878.67905 eV
One Electron Energy:        -1101.48121716 Eh          -29972.82771 eV
Two Electron Energy:          407.70248609 Eh           11094.14866 eV
Max COSX asymmetry :            0.00000401 Eh               0.00011 eV

Virial components:
Potential Energy   :         -894.95997012 Eh          -24353.09887 eV
Kinetic Energy     :          446.46945163 Eh           12149.05142 eV
Virial Ratio       :            2.00452678


DFT components:
N(Alpha)           :       25.000053645847 electrons
N(Beta)            :       25.000053645847 electrons
N(Total)           :       50.000107291694 electrons
E(X)               :      -25.305553832067 Eh       
E(C)               :       -2.197285420986 Eh       
E(XC)              :      -27.502839253054 Eh       
DFET-embed. en.    :        0.000000000000 Eh       

---------------
SCF CONVERGENCE
---------------

  Last Energy change         ...    3.7542e-09  Tolerance :   1.0000e-08
  Last MAX-Density change    ...    2.6645e-15  Tolerance :   1.0000e-07
  Last RMS-Density change    ...    5.3404e-17  Tolerance :   5.0000e-09
  Last Orbital Gradient      ...    1.9946e-07  Tolerance :   1.0000e-05
  Last Orbital Rotation      ...    2.6566e-07  Tolerance :   1.0000e-05

             **** THE GBW FILE WAS UPDATED (TMS.gbw) ****
             **** DENSITY TMS.scfp WAS UPDATED ****
             **** ENERGY FILE WAS UPDATED (TMS.en.tmp) ****
             **** THE GBW FILE WAS UPDATED (TMS.gbw) ****
             **** DENSITY TMS.scfp WAS UPDATED ****
----------------
ORBITAL ENERGIES
----------------

  NO   OCC          E(Eh)            E(eV) 
   0   2.0000     -66.719342     -1815.5256 
   1   2.0000     -10.407099      -283.1916 
   2   2.0000     -10.406993      -283.1887 
   3   2.0000     -10.406979      -283.1883 
   4   2.0000     -10.406941      -283.1873 
   5   2.0000      -5.491566      -149.4331 
   6   2.0000      -3.782999      -102.9406 
   7   2.0000      -3.782986      -102.9403 
   8   2.0000      -3.782971      -102.9399 
   9   2.0000      -0.799857       -21.7652 
  10   2.0000      -0.754218       -20.5233 
  11   2.0000      -0.754032       -20.5183 
  12   2.0000      -0.754024       -20.5180 
  13   2.0000      -0.514312       -13.9951 
  14   2.0000      -0.464604       -12.6425 
  15   2.0000      -0.464534       -12.6406 
  16   2.0000      -0.464498       -12.6396 
  17   2.0000      -0.448107       -12.1936 
  18   2.0000      -0.447922       -12.1886 
  19   2.0000      -0.428872       -11.6702 
  20   2.0000      -0.428831       -11.6691 
  21   2.0000      -0.428790       -11.6680 
  22   2.0000      -0.340564        -9.2672 
  23   2.0000      -0.340337        -9.2610 
  24   2.0000      -0.340263        -9.2590 
  25   0.0000       0.112328         3.0566 
  26   0.0000       0.137878         3.7518 
  27   0.0000       0.137959         3.7541 
  28   0.0000       0.138445         3.7673 
  29   0.0000       0.175021         4.7626 
  30   0.0000       0.175083         4.7643 
  31   0.0000       0.196247         5.3401 
  32   0.0000       0.196517         5.3475 
  33   0.0000       0.196542         5.3482 
  34   0.0000       0.242774         6.6062 
  35   0.0000       0.243334         6.6215 
  36   0.0000       0.243565         6.6277 
  37   0.0000       0.243628         6.6294 
  38   0.0000       0.256972         6.9926 
  39   0.0000       0.256995         6.9932 
  40   0.0000       0.257218         6.9993 
  41   0.0000       0.466286        12.6883 
  42   0.0000       0.467440        12.7197 
  43   0.0000       0.467444        12.7198 
  44   0.0000       0.467570        12.7232 
  45   0.0000       0.477375        12.9900 
  46   0.0000       0.477680        12.9983 
  47   0.0000       0.595716        16.2103 
  48   0.0000       0.595736        16.2108 
  49   0.0000       0.595751        16.2112 
  50   0.0000       0.621895        16.9226 
  51   0.0000       0.655705        17.8427 
  52   0.0000       0.656304        17.8590 
  53   0.0000       0.656577        17.8664 
  54   0.0000       0.671203        18.2644 
  55   0.0000       0.671287        18.2666 
  56   0.0000       0.733213        19.9517 
  57   0.0000       0.734350        19.9827 
  58   0.0000       0.734621        19.9901 
  59   0.0000       0.945445        25.7269 
  60   0.0000       0.946008        25.7422 
  61   0.0000       0.946018        25.7425 
  62   0.0000       1.023274        27.8447 
  63   0.0000       1.023312        27.8457 
  64   0.0000       1.023724        27.8570 
  65   0.0000       1.038790        28.2669 
  66   0.0000       1.038856        28.2687 
  67   0.0000       1.039444        28.2847 
  68   0.0000       1.056024        28.7359 
  69   0.0000       1.092548        29.7297 
  70   0.0000       1.092681        29.7333 
  71   0.0000       1.128648        30.7121 
  72   0.0000       1.129144        30.7256 
  73   0.0000       1.129200        30.7271 
  74   0.0000       1.316605        35.8266 
  75   0.0000       1.318235        35.8710 
  76   0.0000       1.318381        35.8750 
  77   0.0000       1.488217        40.4964 
  78   0.0000       1.731867        47.1265 
  79   0.0000       1.731889        47.1271 
  80   0.0000       1.731959        47.1290 
  81   0.0000       1.868158        50.8352 
  82   0.0000       1.868299        50.8390 
  83   0.0000       1.923052        52.3289 
  84   0.0000       1.923808        52.3495 
  85   0.0000       1.924258        52.3617 
  86   0.0000       2.100781        57.1652 
  87   0.0000       2.253969        61.3336 
  88   0.0000       2.254137        61.3382 
  89   0.0000       2.254304        61.3427 
  90   0.0000       2.348524        63.9066 
  91   0.0000       2.348667        63.9105 
  92   0.0000       2.348876        63.9162 
  93   0.0000       2.350546        63.9616 
  94   0.0000       2.350572        63.9623 
  95   0.0000       2.350822        63.9691 
  96   0.0000       2.390781        65.0564 
  97   0.0000       2.391087        65.0648 
  98   0.0000      13.719595       373.3292 
  99   0.0000      13.761515       374.4699 
 100   0.0000      13.762587       374.4990 
 101   0.0000      13.762642       374.5005 

                    ********************************
                    * MULLIKEN POPULATION ANALYSIS *
                    ********************************

-----------------------
MULLIKEN ATOMIC CHARGES
-----------------------
   0 Si:    1.015176
   1 C :   -0.940446
   2 C :   -0.940263
   3 C :   -0.940197
   4 C :   -0.940482
   5 H :    0.228780
   6 H :    0.228889
   7 H :    0.228949
   8 H :    0.228909
   9 H :    0.228768
  10 H :    0.228891
  11 H :    0.228702
  12 H :    0.228877
  13 H :    0.228800
  14 H :    0.228928
  15 H :    0.228952
  16 H :    0.228767
Sum of atomic charges:   -0.0000000

--------------------------------
MULLIKEN REDUCED ORBITAL CHARGES
--------------------------------
  0 Sis       :     4.941314  s :     4.941314
      pz      :     2.587596  p :     7.762365
      px      :     2.587407
      py      :     2.587362
      dz2     :     0.064984  d :     0.281145
      dxz     :     0.025333
      dyz     :     0.075483
      dx2y2   :     0.043698
      dxy     :     0.071647
  1 C s       :     3.426010  s :     3.426010
      pz      :     1.129856  p :     3.489585
      px      :     1.176842
      py      :     1.182887
      dz2     :     0.005661  d :     0.024851
      dxz     :     0.000421
      dyz     :     0.010271
      dx2y2   :     0.004903
      dxy     :     0.003595
  2 C s       :     3.426108  s :     3.426108
      pz      :     1.129671  p :     3.489304
      px      :     1.214118
      py      :     1.145515
      dz2     :     0.005629  d :     0.024851
      dxz     :     0.001159
      dyz     :     0.009589
      dx2y2   :     0.001803
      dxy     :     0.006671
  3 C s       :     3.426053  s :     3.426053
      pz      :     1.203357  p :     3.489291
      px      :     1.131148
      py      :     1.154786
      dz2     :     0.005906  d :     0.024853
      dxz     :     0.000653
      dyz     :     0.006020
      dx2y2   :     0.003221
      dxy     :     0.009054
  4 C s       :     3.425991  s :     3.425991
      pz      :     1.189904  p :     3.489641
      px      :     1.130988
      py      :     1.168749
      dz2     :     0.007527  d :     0.024851
      dxz     :     0.000517
      dyz     :     0.004681
      dx2y2   :     0.002997
      dxy     :     0.009128
  5 H s       :     0.771220  s :     0.771220
  6 H s       :     0.771111  s :     0.771111
  7 H s       :     0.771051  s :     0.771051
  8 H s       :     0.771091  s :     0.771091
  9 H s       :     0.771232  s :     0.771232
 10 H s       :     0.771109  s :     0.771109
 11 H s       :     0.771298  s :     0.771298
 12 H s       :     0.771123  s :     0.771123
 13 H s       :     0.771200  s :     0.771200
 14 H s       :     0.771072  s :     0.771072
 15 H s       :     0.771048  s :     0.771048
 16 H s       :     0.771233  s :     0.771233


                     *******************************
                     * LOEWDIN POPULATION ANALYSIS *
                     *******************************

----------------------
LOEWDIN ATOMIC CHARGES
----------------------
   0 Si:    0.578331
   1 C :   -0.570080
   2 C :   -0.570020
   3 C :   -0.569982
   4 C :   -0.570065
   5 H :    0.141727
   6 H :    0.141896
   7 H :    0.141877
   8 H :    0.141888
   9 H :    0.141742
  10 H :    0.141863
  11 H :    0.141813
  12 H :    0.141790
  13 H :    0.141750
  14 H :    0.141801
  15 H :    0.141906
  16 H :    0.141762

-------------------------------
LOEWDIN REDUCED ORBITAL CHARGES
-------------------------------
  0 Sis       :     4.832742  s :     4.832742
      pz      :     2.711111  p :     8.133196
      px      :     2.711132
      py      :     2.710953
      dz2     :     0.105656  d :     0.455732
      dxz     :     0.039952
      dyz     :     0.123056
      dx2y2   :     0.070384
      dxy     :     0.116683
  1 C s       :     2.998574  s :     2.998574
      pz      :     1.136722  p :     3.528680
      px      :     1.192351
      py      :     1.199608
      dz2     :     0.009635  d :     0.042825
      dxz     :     0.000693
      dyz     :     0.016836
      dx2y2   :     0.008240
      dxy     :     0.007421
  2 C s       :     2.998638  s :     2.998638
      pz      :     1.136439  p :     3.528556
      px      :     1.236815
      py      :     1.155302
      dz2     :     0.009593  d :     0.042826
      dxz     :     0.002050
      dyz     :     0.015548
      dx2y2   :     0.003790
      dxy     :     0.011846
  3 C s       :     2.998622  s :     2.998622
      pz      :     1.223925  p :     3.528528
      px      :     1.138134
      py      :     1.166469
      dz2     :     0.010541  d :     0.042832
      dxz     :     0.001237
      dyz     :     0.011054
      dx2y2   :     0.005257
      dxy     :     0.014742
  4 C s       :     2.998585  s :     2.998585
      pz      :     1.207839  p :     3.528651
      px      :     1.138022
      py      :     1.182791
      dz2     :     0.012781  d :     0.042830
      dxz     :     0.000944
      dyz     :     0.009119
      dx2y2   :     0.005059
      dxy     :     0.014927
  5 H s       :     0.858273  s :     0.858273
  6 H s       :     0.858104  s :     0.858104
  7 H s       :     0.858123  s :     0.858123
  8 H s       :     0.858112  s :     0.858112
  9 H s       :     0.858258  s :     0.858258
 10 H s       :     0.858137  s :     0.858137
 11 H s       :     0.858187  s :     0.858187
 12 H s       :     0.858210  s :     0.858210
 13 H s       :     0.858250  s :     0.858250
 14 H s       :     0.858199  s :     0.858199
 15 H s       :     0.858094  s :     0.858094
 16 H s       :     0.858238  s :     0.858238


                      *****************************
                      * MAYER POPULATION ANALYSIS *
                      *****************************

  NA   - Mulliken gross atomic population
  ZA   - Total nuclear charge
  QA   - Mulliken gross atomic charge
  VA   - Mayer's total valence
  BVA  - Mayer's bonded valence
  FA   - Mayer's free valence

  ATOM       NA         ZA         QA         VA         BVA        FA
  0 Si    12.9848    14.0000     1.0152     3.8658     3.8658     0.0000
  1 C      6.9404     6.0000    -0.9404     3.6945     3.6945    -0.0000
  2 C      6.9403     6.0000    -0.9403     3.6947     3.6947    -0.0000
  3 C      6.9402     6.0000    -0.9402     3.6945     3.6945    -0.0000
  4 C      6.9405     6.0000    -0.9405     3.6946     3.6946    -0.0000
  5 H      0.7712     1.0000     0.2288     0.9099     0.9099     0.0000
  6 H      0.7711     1.0000     0.2289     0.9099     0.9099     0.0000
  7 H      0.7711     1.0000     0.2289     0.9099     0.9099     0.0000
  8 H      0.7711     1.0000     0.2289     0.9098     0.9098     0.0000
  9 H      0.7712     1.0000     0.2288     0.9099     0.9099     0.0000
 10 H      0.7711     1.0000     0.2289     0.9098     0.9098     0.0000
 11 H      0.7713     1.0000     0.2287     0.9099     0.9099    -0.0000
 12 H      0.7711     1.0000     0.2289     0.9099     0.9099    -0.0000
 13 H      0.7712     1.0000     0.2288     0.9099     0.9099     0.0000
 14 H      0.7711     1.0000     0.2289     0.9098     0.9098    -0.0000
 15 H      0.7710     1.0000     0.2290     0.9098     0.9098    -0.0000
 16 H      0.7712     1.0000     0.2288     0.9099     0.9099    -0.0000

  Mayer bond orders larger than 0.100000
B(  0-Si,  1-C ) :   0.9465 B(  0-Si,  2-C ) :   0.9464 B(  0-Si,  3-C ) :   0.9465 
B(  0-Si,  4-C ) :   0.9466 B(  1-C ,  5-H ) :   0.9134 B(  1-C ,  6-H ) :   0.9133 
B(  1-C ,  7-H ) :   0.9135 B(  2-C ,  8-H ) :   0.9133 B(  2-C ,  9-H ) :   0.9135 
B(  2-C , 10-H ) :   0.9134 B(  3-C , 11-H ) :   0.9134 B(  3-C , 12-H ) :   0.9134 
B(  3-C , 13-H ) :   0.9135 B(  4-C , 14-H ) :   0.9133 B(  4-C , 15-H ) :   0.9132 
B(  4-C , 16-H ) :   0.9136 

-------
TIMINGS
-------

Total SCF time: 0 days 0 hours 0 min 11 sec 

Total time                  ....      11.175 sec
Sum of individual times     ....      11.082 sec  ( 99.2%)

Fock matrix formation       ....      10.143 sec  ( 90.8%)
  Split-RI-J                ....       0.657 sec  (  6.5% of F)
  Chain of spheres X        ....       8.528 sec  ( 84.1% of F)
  XC integration            ....       0.975 sec  (  9.6% of F)
    Basis function eval.    ....       0.434 sec  ( 44.5% of XC)
    Density eval.           ....       0.165 sec  ( 16.9% of XC)
    XC-Functional eval.     ....       0.160 sec  ( 16.4% of XC)
    XC-Potential eval.      ....       0.151 sec  ( 15.5% of XC)
Diagonalization             ....       0.001 sec  (  0.0%)
Density matrix formation    ....       0.001 sec  (  0.0%)
Population analysis         ....       0.002 sec  (  0.0%)
Initial guess               ....       0.002 sec  (  0.0%)
Orbital Transformation      ....       0.000 sec  (  0.0%)
Orbital Orthonormalization  ....       0.001 sec  (  0.0%)
DIIS solution               ....       0.000 sec  (  0.0%)
SOSCF solution              ....       0.003 sec  (  0.0%)
Grid generation             ....       0.931 sec  (  8.3%)

Maximum memory used throughout the entire SCF-calculation: 56.7 MB


-------------------------------------------------------------------------------
                          DFT DISPERSION CORRECTION                            
                                                                               
                              DFTD3 V3.1  Rev 1                                
                          USING Becke-Johnson damping                          
-------------------------------------------------------------------------------
The PBEh-3c composite method is recognized
Using three-body term ABC
Active option DFTDOPT                   ...         4   

molecular C6(AA) [au] = 2519.601908 


            DFT-D V3
 parameters
 s6 scaling factor         :     1.0000 
 a1 scaling factor         :     0.4860 
 s8 scaling factor         :     0.0000 
 a2 scaling factor         :     4.5000 
 Damping factor alpha9(ATM):    16.0000 
 ad hoc parameters k1-k3   :    16.0000     1.3333    -4.0000 

 Edisp/kcal,au: -4.661431846921  -0.007428463700 
 E6   /kcal   :  -4.702586054 
 E8   /kcal   :  -0.000000000 
 E6(ABC)      :   0.041154207 
 % E8         :   0.000000000 
 % E6(ABC)    :  -0.882866210 

-------------------------   ----------------
Dispersion correction           -0.007428464
-------------------------   ----------------

------------------   -----------------
gCP correction             0.013274819
------------------   -----------------

-------------------------   --------------------
FINAL SINGLE POINT ENERGY      -448.484672130892
-------------------------   --------------------

                                *** OPTIMIZATION RUN DONE ***

                            ***************************************
                            *     ORCA property calculations      *
                            ***************************************

                                    ---------------------
                                    Active property flags
                                    ---------------------
   (+) Dipole Moment


------------------------------------------------------------------------------
                       ORCA ELECTRIC PROPERTIES CALCULATION
------------------------------------------------------------------------------

Dipole Moment Calculation                       ... on
Quadrupole Moment Calculation                   ... off
Polarizability Calculation                      ... off
GBWName                                         ... TMS.gbw
Electron density                                ... TMS.scfp
The origin for moment calculation is the CENTER OF MASS  = (-3.819087,  2.280031 -0.029758)

-------------
DIPOLE MOMENT
-------------
                                X             Y             Z
Electronic contribution:     -0.00734       0.00384       0.00702
Nuclear contribution   :      0.00645      -0.00372      -0.00689
                        -----------------------------------------
Total Dipole Moment    :     -0.00089       0.00012       0.00014
                        -----------------------------------------
Magnitude (a.u.)       :      0.00091
Magnitude (Debye)      :      0.00232



--------------------
Rotational spectrum 
--------------------
 
Rotational constants in cm-1:     0.102667     0.102393     0.102361 
Rotational constants in MHz :  3077.876201  3069.655695  3068.696258 

 Dipole components along the rotational axes: 
x,y,z [a.u.] :     0.000634    -0.000376     0.000537 
x,y,z [Debye]:     0.001612    -0.000957     0.001365 

 

Timings for individual modules:

Sum of individual times         ...      137.089 sec (=   2.285 min)
GTO integral calculation        ...        0.936 sec (=   0.016 min)   0.7 %
SCF iterations                  ...      102.128 sec (=   1.702 min)  74.5 %
SCF Gradient evaluation         ...       33.890 sec (=   0.565 min)  24.7 %
Geometry relaxation             ...        0.134 sec (=   0.002 min)   0.1 %
                             ****ORCA TERMINATED NORMALLY****
TOTAL RUN TIME: 0 days 0 hours 2 minutes 17 seconds 637 msec
