      -----------------------------------------------------------      
     |                   =====================                   |     
     |                           x T B                           |     
     |                   =====================                   |     
     |                         S. Grimme                         |     
     |          Mulliken Center for Theoretical Chemistry        |     
     |                    University of Bonn                     |     
      -----------------------------------------------------------      

   * xtb version 6.5.1 (579679a) compiled by 'ehlert@majestix' on 2022-07-11

   xtb is free software: you can redistribute it and/or modify it under
   the terms of the GNU Lesser General Public License as published by
   the Free Software Foundation, either version 3 of the License, or
   (at your option) any later version.
   
   xtb is distributed in the hope that it will be useful,
   but WITHOUT ANY WARRANTY; without even the implied warranty of
   MERCHANTABILITY or FITNESS FOR A PARTICULAR PURPOSE.  See the
   GNU Lesser General Public License for more details.
   
   Cite this work as:
   * C. Bannwarth, E. Caldeweyher, S. Ehlert, A. Hansen, P. Pracht,
     J. Seibert, S. Spicher, S. Grimme, WIREs Comput. Mol. Sci., 2020, 11,
     e01493. DOI: 10.1002/wcms.1493
   
   for GFN2-xTB:
   * C. Bannwarth, S. Ehlert and S. Grimme., J. Chem. Theory Comput., 2019,
     15, 1652-1671. DOI: 10.1021/acs.jctc.8b01176
   for GFN1-xTB:
   * S. Grimme, C. Bannwarth, P. Shushkov, J. Chem. Theory Comput., 2017,
     13, 1989-2009. DOI: 10.1021/acs.jctc.7b00118
   for GFN0-xTB:
   * P. Pracht, E. Caldeweyher, S. Ehlert, S. Grimme, ChemRxiv, 2019, preprint.
     DOI: 10.26434/chemrxiv.8326202.v1
   for GFN-FF:
   * S. Spicher and S. Grimme, Angew. Chem. Int. Ed., 2020, 59, 15665-15673.
     DOI: 10.1002/anie.202004239
   
   for ALPB and GBSA implicit solvation:
   * S. Ehlert, M. Stahn, S. Spicher, S. Grimme, J. Chem. Theory Comput.,
     2021, 17, 4250-4261. DOI: 10.1021/acs.jctc.1c00471
   
   for DFT-D4:
   * E. Caldeweyher, C. Bannwarth and S. Grimme, J. Chem. Phys., 2017,
     147, 034112. DOI: 10.1063/1.4993215
   * E. Caldeweyher, S. Ehlert, A. Hansen, H. Neugebauer, S. Spicher,
     C. Bannwarth and S. Grimme, J. Chem. Phys., 2019, 150, 154122.
     DOI: 10.1063/1.5090222
   * E. Caldeweyher, J.-M. Mewes, S. Ehlert and S. Grimme, Phys. Chem. Chem. Phys.
     2020, 22, 8499-8512. DOI: 10.1039/D0CP00502A
   
   for sTDA-xTB:
   * S. Grimme and C. Bannwarth, J. Chem. Phys., 2016, 145, 054103.
     DOI: 10.1063/1.4959605
   
   in the mass-spec context:
   * V. Asgeirsson, C. Bauer and S. Grimme, Chem. Sci., 2017, 8, 4879.
     DOI: 10.1039/c7sc00601b
   * J. Koopman and S. Grimme, ACS Omega 2019, 4, 12, 15120-15133.
     DOI: 10.1021/acsomega.9b02011
   
   for metadynamics refer to:
   * S. Grimme, J. Chem. Theory Comput., 2019, 155, 2847-2862
     DOI: 10.1021/acs.jctc.9b00143
   
   for SPH calculations refer to:
   * S. Spicher and S. Grimme, J. Chem. Theory Comput., 2021, 17, 1701-1714
     DOI: 10.1021/acs.jctc.0c01306
   
   with help from (in alphabetical order)
   P. Atkinson, C. Bannwarth, F. Bohle, G. Brandenburg, E. Caldeweyher
   M. Checinski, S. Dohm, S. Ehlert, S. Ehrlich, I. Gerasimov, C. Hölzer
   A. Katbashev, J. Koopman, C. Lavigne, S. Lehtola, F. März, M. Müller,
   F. Musil, H. Neugebauer, J. Pisarek, C. Plett, P. Pracht, F. Pultar,
   J. Seibert, P. Shushkov, S. Spicher, M. Stahn, M. Steiner, T. Strunk,
   J. Stückrath, T. Rose, and J. Unsleber
   
 * started run on 2023/06/22 at 11:25:46.984     

           -------------------------------------------------
          |                Calculation Setup                |
           -------------------------------------------------

          program call               : xtb claisen_end_2.xyz --opt
          hostname                   : c04
          coordinate file            : claisen_end_2.xyz
          omp threads                :                     2

   ID    Z sym.   atoms
    1    6 C      1-3, 5, 6
    2    8 O      4
    3    1 H      7-14

           -------------------------------------------------
          |                 G F N 2 - x T B                 |
           -------------------------------------------------

        Reference                      10.1021/acs.jctc.8b01176
      * Hamiltonian:
        H0-scaling (s, p, d)           1.850000    2.230000    2.230000
        zeta-weighting                 0.500000
      * Dispersion:
        s8                             2.700000
        a1                             0.520000
        a2                             5.000000
        s9                             5.000000
      * Repulsion:
        kExp                           1.500000    1.000000
        rExp                           1.000000
      * Coulomb:
        alpha                          2.000000
        third order                    shell-resolved
        anisotropic                    true
        a3                             3.000000
        a5                             4.000000
        cn-shift                       1.200000
        cn-exp                         4.000000
        max-rad                        5.000000


          ...................................................
          :                      SETUP                      :
          :.................................................:
          :  # basis functions                  32          :
          :  # atomic orbitals                  32          :
          :  # shells                           20          :
          :  # electrons                        34          :
          :  max. iterations                   250          :
          :  Hamiltonian                  GFN2-xTB          :
          :  restarted?                      false          :
          :  GBSA solvation                  false          :
          :  PC potential                    false          :
          :  electronic temp.          300.0000000     K    :
          :  accuracy                    1.0000000          :
          :  -> integral cutoff          0.2500000E+02      :
          :  -> integral neglect         0.1000000E-07      :
          :  -> SCF convergence          0.1000000E-05 Eh   :
          :  -> wf. convergence          0.1000000E-03 e    :
          :  Broyden damping             0.4000000          :
          ...................................................

 iter      E             dE          RMSdq      gap      omega  full diag
   1    -18.9711906 -0.189712E+02  0.497E+00    4.13       0.0  T
   2    -19.0176388 -0.464482E-01  0.268E+00    3.04       1.0  T
   3    -19.0198006 -0.216179E-02  0.177E+00    3.46       1.0  T
   4    -19.0278760 -0.807539E-02  0.462E-01    3.01       1.0  T
   5    -19.0293922 -0.151623E-02  0.174E-01    2.99       1.0  T
   6    -19.0296976 -0.305430E-03  0.622E-02    3.03       1.0  T
   7    -19.0297088 -0.112002E-04  0.211E-02    3.04       1.3  T
   8    -19.0297092 -0.409955E-06  0.513E-03    3.04       5.2  T
   9    -19.0297093 -0.648752E-07  0.181E-03    3.04      14.8  T
  10    -19.0297093 -0.324041E-08  0.744E-04    3.04      35.9  T
  11    -19.0297093 -0.649553E-08  0.113E-04    3.04     235.6  T

   *** convergence criteria satisfied after 11 iterations ***

         #    Occupation            Energy/Eh            Energy/eV
      -------------------------------------------------------------
         1        2.0000           -0.7124331             -19.3863
       ...           ...                  ...                  ...
        11        2.0000           -0.4884293             -13.2908
        12        2.0000           -0.4775410             -12.9946
        13        2.0000           -0.4682386             -12.7414
        14        2.0000           -0.4426127             -12.0441
        15        2.0000           -0.4279836             -11.6460
        16        2.0000           -0.4141472             -11.2695
        17        2.0000           -0.3818811             -10.3915 (HOMO)
        18                         -0.2702410              -7.3536 (LUMO)
        19                         -0.1984331              -5.3996
        20                          0.0578511               1.5742
        21                          0.0813751               2.2143
        22                          0.0946143               2.5746
       ...                                ...                  ...
        32                          0.5684472              15.4682
      -------------------------------------------------------------
                  HL-Gap            0.1116401 Eh            3.0379 eV
             Fermi-level           -0.3260611 Eh           -8.8726 eV

 SCC (total)                   0 d,  0 h,  0 min,  0.007 sec
 SCC setup                      ...        0 min,  0.000 sec (  2.801%)
 Dispersion                     ...        0 min,  0.000 sec (  1.309%)
 classical contributions        ...        0 min,  0.000 sec (  0.246%)
 integral evaluation            ...        0 min,  0.001 sec ( 13.037%)
 iterations                     ...        0 min,  0.004 sec ( 51.371%)
 molecular gradient             ...        0 min,  0.002 sec ( 28.983%)
 printout                       ...        0 min,  0.000 sec (  1.610%)

         :::::::::::::::::::::::::::::::::::::::::::::::::::::
         ::                     SUMMARY                     ::
         :::::::::::::::::::::::::::::::::::::::::::::::::::::
         :: total energy             -18.778001563773 Eh    ::
         :: gradient norm              0.073623001776 Eh/a0 ::
         :: HOMO-LUMO gap              3.037882343342 eV    ::
         ::.................................................::
         :: SCC energy               -19.029709314864 Eh    ::
         :: -> isotropic ES            0.024063356635 Eh    ::
         :: -> anisotropic ES          0.003876225362 Eh    ::
         :: -> anisotropic XC          0.011469120205 Eh    ::
         :: -> dispersion             -0.008427066960 Eh    ::
         :: repulsion energy           0.251693504751 Eh    ::
         :: add. restraining           0.000000000000 Eh    ::
         :: total charge               0.000000000000 e     ::
         :::::::::::::::::::::::::::::::::::::::::::::::::::::

      ----------------------------------------------------------- 
     |                   =====================                   |
     |                        A N C O P T                        |
     |                   =====================                   |
     |               Approximate Normal Coordinate               |
     |                Rational Function Optimizer                |
      ----------------------------------------------------------- 

          ...................................................
          :                      SETUP                      :
          :.................................................:
          :   optimization level            normal          :
          :   max. optcycles                   200          :
          :   ANC micro-cycles                  20          :
          :   degrees of freedom                36          :
          :.................................................:
          :   RF solver                   davidson          :
          :   write xtbopt.log                true          :
          :   linear?                        false          :
          :   energy convergence         0.5000000E-05 Eh   :
          :   grad. convergence          0.1000000E-02 Eh/α :
          :   maximium RF displ.         1.0000000          :
          :   Hlow (freq-cutoff)         0.1000000E-01      :
          :   Hmax (freq-cutoff)         5.0000000          :
          :   S6 in model hess.         20.0000000          :
          ...................................................

generating ANC from model Hessian ...
Using Lindh-Hessian (1995)
 Shifting diagonal of input Hessian by   6.874409947780134E-003
 Lowest  eigenvalues of input Hessian
    0.000000    0.000000    0.000000    0.000000    0.000000    0.000000
    0.010000    0.010770    0.011988    0.018282    0.020813    0.022129
    0.040170    0.046580    0.047264    0.055633    0.060074    0.064655
 Highest eigenvalues
    1.125745    1.175511    1.376839    1.475906    1.847199    2.094720
 

........................................................................
.............................. CYCLE    1 ..............................
........................................................................
   1    -19.0297093 -0.190297E+02  0.710E-05    3.04       0.0  T
   2    -19.0297093 -0.174936E-10  0.336E-05    3.04     794.9  T
   3    -19.0297093 -0.759925E-11  0.213E-05    3.04    1256.9  T
     SCC iter.                  ...        0 min,  0.001 sec
     gradient                   ...        0 min,  0.002 sec
 * total energy  :   -18.7780016 Eh     change       -0.6751222E-10 Eh
   gradient norm :     0.0736228 Eh/α   predicted     0.0000000E+00 (-100.00%)
   displ. norm   :     0.3634331 α      lambda       -0.8982315E-02
   maximum displ.:     0.2309309 α      in ANC's #2, #1, #6, ...

........................................................................
.............................. CYCLE    2 ..............................
........................................................................
   1    -19.0512222 -0.190512E+02  0.282E-01    3.32       0.0  T
   2    -19.0512742 -0.519495E-04  0.161E-01    3.30       1.0  T
   3    -19.0512141  0.601027E-04  0.107E-01    3.30       1.0  T
   4    -19.0512964 -0.823044E-04  0.195E-02    3.30       1.4  T
   5    -19.0512990 -0.265052E-05  0.563E-03    3.30       4.7  T
   6    -19.0512991 -0.222006E-07  0.212E-03    3.30      12.6  T
   7    -19.0512991 -0.943922E-08  0.867E-04    3.30      30.8  T
   8    -19.0512991 -0.357946E-08  0.197E-04    3.30     135.5  T
     SCC iter.                  ...        0 min,  0.002 sec
     gradient                   ...        0 min,  0.002 sec
 * total energy  :   -18.7836589 Eh     change       -0.5657361E-02 Eh
   gradient norm :     0.0291472 Eh/α   predicted    -0.5084365E-02 ( -10.13%)
   displ. norm   :     0.3320450 α      lambda       -0.3098024E-02
   maximum displ.:     0.1599270 α      in ANC's #2, #1, #4, ...

........................................................................
.............................. CYCLE    3 ..............................
........................................................................
   1    -19.0604991 -0.190605E+02  0.308E-01    3.46       0.0  T
   2    -19.0605220 -0.228451E-04  0.181E-01    3.44       1.0  T
   3    -19.0605182  0.382615E-05  0.328E-02    3.44       1.0  T
   4    -19.0605241 -0.597189E-05  0.145E-02    3.44       1.8  T
   5    -19.0605256 -0.147666E-05  0.542E-03    3.44       4.9  T
   6    -19.0605257 -0.110866E-06  0.217E-03    3.44      12.3  T
   7    -19.0605257 -0.132070E-07  0.982E-04    3.44      27.2  T
   8    -19.0605257 -0.268036E-08  0.245E-04    3.44     109.0  T
     SCC iter.                  ...        0 min,  0.002 sec
     gradient                   ...        0 min,  0.002 sec
 * total energy  :   -18.7849222 Eh     change       -0.1263321E-02 Eh
   gradient norm :     0.0128747 Eh/α   predicted    -0.1719794E-02 (  36.13%)
   displ. norm   :     0.1951118 α      lambda       -0.1203659E-02
   maximum displ.:     0.1080332 α      in ANC's #1, #6, #3, ...

........................................................................
.............................. CYCLE    4 ..............................
........................................................................
   1    -19.0591432 -0.190591E+02  0.189E-01    3.48       0.0  T
   2    -19.0591470 -0.377728E-05  0.114E-01    3.48       1.0  T
   3    -19.0591162  0.307917E-04  0.590E-02    3.48       1.0  T
   4    -19.0591515 -0.353370E-04  0.458E-03    3.48       5.8  T
   5    -19.0591516 -0.100494E-06  0.205E-03    3.48      13.1  T
   6    -19.0591516 -0.286529E-08  0.665E-04    3.48      40.2  T
   7    -19.0591516 -0.895632E-09  0.306E-04    3.48      87.4  T
     SCC iter.                  ...        0 min,  0.002 sec
     gradient                   ...        0 min,  0.002 sec
 * total energy  :   -18.7855125 Eh     change       -0.5902224E-03 Eh
   gradient norm :     0.0110280 Eh/α   predicted    -0.6247360E-03 (   5.85%)
   displ. norm   :     0.1547796 α      lambda       -0.4795082E-03
   maximum displ.:     0.0823175 α      in ANC's #6, #4, #3, ...

........................................................................
.............................. CYCLE    5 ..............................
........................................................................
   1    -19.0575524 -0.190576E+02  0.166E-01    3.52       0.0  T
   2    -19.0575539 -0.144505E-05  0.978E-02    3.51       1.0  T
   3    -19.0575485  0.532202E-05  0.246E-02    3.51       1.1  T
   4    -19.0575549 -0.634531E-05  0.398E-03    3.51       6.7  T
   5    -19.0575549 -0.361289E-07  0.197E-03    3.51      13.5  T
   6    -19.0575549 -0.458537E-08  0.733E-04    3.51      36.5  T
   7    -19.0575549 -0.908919E-09  0.240E-04    3.51     111.2  T
     SCC iter.                  ...        0 min,  0.002 sec
     gradient                   ...        0 min,  0.002 sec
 * total energy  :   -18.7857799 Eh     change       -0.2674132E-03 Eh
   gradient norm :     0.0090674 Eh/α   predicted    -0.2454969E-03 (  -8.20%)
   displ. norm   :     0.2206086 α      lambda       -0.5193705E-03
   maximum displ.:     0.1114253 α      in ANC's #6, #3, #1, ...

........................................................................
.............................. CYCLE    6 ..............................
........................................................................
   1    -19.0557674 -0.190558E+02  0.245E-01    3.51       0.0  T
   2    -19.0557715 -0.411176E-05  0.144E-01    3.52       1.0  T
   3    -19.0557662  0.525492E-05  0.258E-02    3.52       1.0  T
   4    -19.0557728 -0.657313E-05  0.644E-03    3.52       4.2  T
   5    -19.0557731 -0.269412E-06  0.295E-03    3.52       9.1  T
   6    -19.0557731 -0.149849E-07  0.116E-03    3.52      23.0  T
   7    -19.0557731 -0.171880E-08  0.486E-04    3.52      55.0  T
   8    -19.0557731 -0.128673E-08  0.137E-04    3.52     194.9  T
     SCC iter.                  ...        0 min,  0.002 sec
     gradient                   ...        0 min,  0.002 sec
 * total energy  :   -18.7861527 Eh     change       -0.3728333E-03 Eh
   gradient norm :     0.0118861 Eh/α   predicted    -0.2723264E-03 ( -26.96%)
   displ. norm   :     0.2421903 α      lambda       -0.5655589E-03
   maximum displ.:     0.1361147 α      in ANC's #6, #3, #5, ...

........................................................................
.............................. CYCLE    7 ..............................
........................................................................
   1    -19.0569790 -0.190570E+02  0.291E-01    3.54       0.0  T
   2    -19.0569825 -0.347332E-05  0.173E-01    3.54       1.0  T
   3    -19.0569661  0.164018E-04  0.421E-02    3.54       1.0  T
   4    -19.0569853 -0.192183E-04  0.591E-03    3.54       4.5  T
   5    -19.0569854 -0.880293E-07  0.325E-03    3.54       8.2  T
   6    -19.0569854 -0.231823E-07  0.138E-03    3.54      19.4  T
   7    -19.0569854 -0.513186E-08  0.512E-04    3.54      52.2  T
   8    -19.0569854 -0.651124E-09  0.148E-04    3.54     180.3  T
     SCC iter.                  ...        0 min,  0.002 sec
     gradient                   ...        0 min,  0.002 sec
 * total energy  :   -18.7865537 Eh     change       -0.4010086E-03 Eh
   gradient norm :     0.0129263 Eh/α   predicted    -0.2993696E-03 ( -25.35%)
   displ. norm   :     0.2146764 α      lambda       -0.4944411E-03
   maximum displ.:     0.1196034 α      in ANC's #6, #3, #5, ...

........................................................................
.............................. CYCLE    8 ..............................
........................................................................
   1    -19.0599482 -0.190599E+02  0.274E-01    3.58       0.0  T
   2    -19.0599506 -0.236354E-05  0.162E-01    3.57       1.0  T
   3    -19.0599380  0.125303E-04  0.368E-02    3.57       1.0  T
   4    -19.0599527 -0.146754E-04  0.496E-03    3.57       5.4  T
   5    -19.0599528 -0.404435E-07  0.289E-03    3.57       9.2  T
   6    -19.0599528 -0.231571E-07  0.112E-03    3.57      23.9  T
   7    -19.0599528 -0.298337E-08  0.349E-04    3.57      76.6  T
   8    -19.0599528 -0.168448E-09  0.110E-04    3.57     243.9  T
     SCC iter.                  ...        0 min,  0.002 sec
     gradient                   ...        0 min,  0.002 sec
 * total energy  :   -18.7869400 Eh     change       -0.3862942E-03 Eh
   gradient norm :     0.0101017 Eh/α   predicted    -0.2586156E-03 ( -33.05%)
   displ. norm   :     0.3464688 α      lambda       -0.6080760E-03
   maximum displ.:     0.2218849 α      in ANC's #3, #6, #5, ...

........................................................................
.............................. CYCLE    9 ..............................
........................................................................
   1    -19.0589177 -0.190589E+02  0.457E-01    3.56       0.0  T
   2    -19.0589246 -0.692628E-05  0.271E-01    3.57       1.0  T
   3    -19.0589170  0.755473E-05  0.325E-02    3.58       1.0  T
   4    -19.0589276 -0.106020E-04  0.875E-03    3.57       3.1  T
   5    -19.0589280 -0.338435E-06  0.464E-03    3.57       5.8  T
   6    -19.0589280 -0.441386E-07  0.188E-03    3.57      14.2  T
   7    -19.0589280 -0.109239E-07  0.742E-04    3.57      36.0  T
   8    -19.0589280 -0.158892E-08  0.221E-04    3.57     120.9  T
     SCC iter.                  ...        0 min,  0.002 sec
     gradient                   ...        0 min,  0.002 sec
 * total energy  :   -18.7873175 Eh     change       -0.3774658E-03 Eh
   gradient norm :     0.0191868 Eh/α   predicted    -0.3405358E-03 (  -9.78%)
   displ. norm   :     0.4694422 α      lambda       -0.1597154E-02
   maximum displ.:     0.2524596 α      in ANC's #3, #1, #6, ...

........................................................................
.............................. CYCLE   10 ..............................
........................................................................
   1    -19.0668994 -0.190669E+02  0.585E-01    3.80       0.0  T
   2    -19.0669300 -0.305837E-04  0.346E-01    3.76       1.0  T
   3    -19.0669267  0.324015E-05  0.310E-02    3.75       1.0  T
   4    -19.0669347 -0.793887E-05  0.877E-03    3.75       3.0  T
   5    -19.0669349 -0.231430E-06  0.551E-03    3.75       4.8  T
   6    -19.0669350 -0.110992E-06  0.288E-03    3.75       9.3  T
   7    -19.0669350 -0.254335E-07  0.135E-03    3.75      19.8  T
   8    -19.0669350 -0.728798E-08  0.263E-04    3.75     101.7  T
   9    -19.0669350 -0.147065E-09  0.114E-04    3.75     235.2  T
     SCC iter.                  ...        0 min,  0.002 sec
     gradient                   ...        0 min,  0.001 sec
 * total energy  :   -18.7875450 Eh     change       -0.2275447E-03 Eh
   gradient norm :     0.0276641 Eh/α   predicted    -0.9745783E-03 ( 328.30%)
   displ. norm   :     0.4595748 α      lambda       -0.1478985E-02
   maximum displ.:     0.2862985 α      in ANC's #3, #6, #5, ...

........................................................................
.............................. CYCLE   11 ..............................
........................................................................
   1    -19.0532188 -0.190532E+02  0.674E-01    3.51       0.0  T
   2    -19.0532868 -0.679904E-04  0.400E-01    3.56       1.0  T
   3    -19.0532856  0.114665E-05  0.355E-02    3.59       1.0  T
   4    -19.0532941 -0.849101E-05  0.129E-02    3.58       2.1  T
   5    -19.0532946 -0.485334E-06  0.846E-03    3.58       3.2  T
   6    -19.0532951 -0.445424E-06  0.340E-03    3.58       7.9  T
   7    -19.0532951 -0.114137E-07  0.172E-03    3.58      15.6  T
   8    -19.0532951 -0.149862E-07  0.395E-04    3.58      67.6  T
   9    -19.0532951 -0.347345E-09  0.183E-04    3.58     146.4  T
     SCC iter.                  ...        0 min,  0.002 sec
     gradient                   ...        0 min,  0.001 sec
 * total energy  :   -18.7875260 Eh     change        0.1902888E-04 Eh
   gradient norm :     0.0379896 Eh/α   predicted    -0.8956758E-03 (*******%)
   displ. norm   :     0.3519096 α      lambda       -0.1855997E-02
   maximum displ.:     0.2041887 α      in ANC's #3, #6, #5, ...

........................................................................
.............................. CYCLE   12 ..............................
........................................................................
   1    -19.0637605 -0.190638E+02  0.496E-01    3.73       0.0  T
   2    -19.0637829 -0.223220E-04  0.295E-01    3.70       1.0  T
   3    -19.0637693  0.135502E-04  0.417E-02    3.69       1.0  T
   4    -19.0637854 -0.161081E-04  0.148E-02    3.69       1.8  T
   5    -19.0637873 -0.189586E-05  0.472E-03    3.69       5.7  T
   6    -19.0637874 -0.515316E-07  0.211E-03    3.69      12.7  T
   7    -19.0637874 -0.441604E-08  0.654E-04    3.69      40.9  T
   8    -19.0637874 -0.178822E-08  0.233E-04    3.69     114.6  T
     SCC iter.                  ...        0 min,  0.002 sec
     gradient                   ...        0 min,  0.001 sec
 * total energy  :   -18.7881272 Eh     change       -0.6011785E-03 Eh
   gradient norm :     0.0044969 Eh/α   predicted    -0.1042924E-02 (  73.48%)
   displ. norm   :     0.1454906 α      lambda       -0.1998610E-03
   maximum displ.:     0.0966557 α      in ANC's #3, #1, #5, ...

........................................................................
.............................. CYCLE   13 ..............................
........................................................................
   1    -19.0620397 -0.190620E+02  0.178E-01    3.73       0.0  T
   2    -19.0620416 -0.184958E-05  0.105E-01    3.73       1.0  T
   3    -19.0620408  0.754294E-06  0.120E-02    3.72       2.2  T
   4    -19.0620419 -0.109965E-05  0.369E-03    3.72       7.2  T
   5    -19.0620420 -0.919255E-07  0.201E-03    3.72      13.3  T
   6    -19.0620420 -0.186613E-07  0.723E-04    3.72      37.0  T
   7    -19.0620421 -0.455355E-09  0.273E-04    3.72      98.1  T
     SCC iter.                  ...        0 min,  0.002 sec
     gradient                   ...        0 min,  0.001 sec
 * total energy  :   -18.7882148 Eh     change       -0.8766392E-04 Eh
   gradient norm :     0.0080257 Eh/α   predicted    -0.1020438E-03 (  16.40%)
   displ. norm   :     0.1630138 α      lambda       -0.1842694E-03
   maximum displ.:     0.1023969 α      in ANC's #3, #6, #1, ...

........................................................................
.............................. CYCLE   14 ..............................
........................................................................
   1    -19.0597370 -0.190597E+02  0.218E-01    3.68       0.0  T
   2    -19.0597418 -0.477318E-05  0.129E-01    3.69       1.0  T
   3    -19.0597416  0.184621E-06  0.100E-02    3.70       2.7  T
   4    -19.0597423 -0.749789E-06  0.474E-03    3.70       5.6  T
   5    -19.0597425 -0.121731E-06  0.232E-03    3.70      11.5  T
   6    -19.0597425 -0.322871E-07  0.993E-04    3.69      26.9  T
   7    -19.0597425 -0.233516E-08  0.533E-04    3.69      50.1  T
     SCC iter.                  ...        0 min,  0.002 sec
     gradient                   ...        0 min,  0.001 sec
 * total energy  :   -18.7883291 Eh     change       -0.1142219E-03 Eh
   gradient norm :     0.0081274 Eh/α   predicted    -0.9458077E-04 ( -17.20%)
   displ. norm   :     0.2284871 α      lambda       -0.2126782E-03
   maximum displ.:     0.1222371 α      in ANC's #3, #1, #6, ...

........................................................................
.............................. CYCLE   15 ..............................
........................................................................
   1    -19.0585253 -0.190585E+02  0.329E-01    3.68       0.0  T
   2    -19.0585279 -0.257236E-05  0.194E-01    3.69       1.0  T
   3    -19.0585281 -0.246030E-06  0.909E-03    3.69       2.9  T
   4    -19.0585288 -0.669206E-06  0.412E-03    3.69       6.5  T
   5    -19.0585288 -0.248144E-07  0.209E-03    3.69      12.8  T
   6    -19.0585288 -0.932416E-08  0.840E-04    3.69      31.8  T
   7    -19.0585288 -0.349973E-08  0.424E-04    3.69      63.0  T
     SCC iter.                  ...        0 min,  0.002 sec
     gradient                   ...        0 min,  0.001 sec
 * total energy  :   -18.7883692 Eh     change       -0.4013166E-04 Eh
   gradient norm :     0.0143994 Eh/α   predicted    -0.1118908E-03 ( 178.81%)
   displ. norm   :     0.0507224 α      lambda       -0.2010945E-03
   maximum displ.:     0.0268543 α      in ANC's #6, #3, #4, ...

........................................................................
.............................. CYCLE   16 ..............................
........................................................................
   1    -19.0618664 -0.190619E+02  0.781E-02    3.73       0.0  T
   2    -19.0618677 -0.130500E-05  0.466E-02    3.73       1.0  T
   3    -19.0618676  0.123336E-06  0.574E-03    3.72       4.7  T
   4    -19.0618678 -0.222996E-06  0.223E-03    3.72      12.0  T
   5    -19.0618679 -0.410312E-07  0.102E-03    3.72      26.1  T
   6    -19.0618679 -0.418132E-08  0.419E-04    3.72      63.9  T
   7    -19.0618679 -0.197861E-09  0.186E-04    3.72     143.7  T
     SCC iter.                  ...        0 min,  0.002 sec
     gradient                   ...        0 min,  0.001 sec
 * total energy  :   -18.7884836 Eh     change       -0.1144341E-03 Eh
   gradient norm :     0.0041100 Eh/α   predicted    -0.1008050E-03 ( -11.91%)
   displ. norm   :     0.1573421 α      lambda       -0.1054889E-03
   maximum displ.:     0.1009078 α      in ANC's #3, #1, #24, ...

........................................................................
.............................. CYCLE   17 ..............................
........................................................................
   1    -19.0614093 -0.190614E+02  0.196E-01    3.74       0.0  T
   2    -19.0614100 -0.699315E-06  0.115E-01    3.74       1.0  T
   3    -19.0614087  0.130177E-05  0.127E-02    3.74       2.1  T
   4    -19.0614104 -0.169251E-05  0.257E-03    3.74      10.4  T
   5    -19.0614104 -0.172993E-07  0.155E-03    3.74      17.2  T
   6    -19.0614104 -0.803952E-08  0.524E-04    3.74      51.0  T
   7    -19.0614104 -0.573412E-09  0.184E-04    3.74     145.3  T
     SCC iter.                  ...        0 min,  0.002 sec
     gradient                   ...        0 min,  0.001 sec
 * total energy  :   -18.7885531 Eh     change       -0.6947342E-04 Eh
   gradient norm :     0.0040970 Eh/α   predicted    -0.5404830E-04 ( -22.20%)
   displ. norm   :     0.2262038 α      lambda       -0.1115791E-03
   maximum displ.:     0.1296286 α      in ANC's #3, #1, #24, ...

........................................................................
.............................. CYCLE   18 ..............................
........................................................................
   1    -19.0612094 -0.190612E+02  0.303E-01    3.76       0.0  T
   2    -19.0612107 -0.131132E-05  0.179E-01    3.75       1.0  T
   3    -19.0612088  0.189945E-05  0.157E-02    3.76       1.7  T
   4    -19.0612115 -0.266542E-05  0.404E-03    3.76       6.6  T
   5    -19.0612115 -0.498328E-07  0.227E-03    3.76      11.8  T
   6    -19.0612116 -0.130007E-07  0.609E-04    3.76      43.9  T
   7    -19.0612116 -0.998337E-09  0.272E-04    3.76      98.3  T
     SCC iter.                  ...        0 min,  0.002 sec
     gradient                   ...        0 min,  0.001 sec
 * total energy  :   -18.7886335 Eh     change       -0.8035322E-04 Eh
   gradient norm :     0.0033446 Eh/α   predicted    -0.5864770E-04 ( -27.01%)
   displ. norm   :     0.1988432 α      lambda       -0.8033914E-04
   maximum displ.:     0.1138537 α      in ANC's #3, #1, #24, ...

........................................................................
.............................. CYCLE   19 ..............................
........................................................................
   1    -19.0616852 -0.190617E+02  0.271E-01    3.77       0.0  T
   2    -19.0616862 -0.101447E-05  0.160E-01    3.77       1.0  T
   3    -19.0616863 -0.648215E-07  0.699E-03    3.77       3.8  T
   4    -19.0616867 -0.452883E-06  0.305E-03    3.77       8.8  T
   5    -19.0616867  0.814744E-10  0.156E-03    3.77      17.1  T
   6    -19.0616867 -0.164936E-07  0.597E-04    3.77      44.8  T
   7    -19.0616867 -0.152690E-08  0.213E-04    3.77     125.4  T
     SCC iter.                  ...        0 min,  0.002 sec
     gradient                   ...        0 min,  0.001 sec
 * total energy  :   -18.7886815 Eh     change       -0.4803687E-04 Eh
   gradient norm :     0.0035063 Eh/α   predicted    -0.4175838E-04 ( -13.07%)
   displ. norm   :     0.0937943 α      lambda       -0.5883296E-04
   maximum displ.:     0.0483846 α      in ANC's #3, #1, #24, ...

........................................................................
.............................. CYCLE   20 ..............................
........................................................................
   1    -19.0638810 -0.190639E+02  0.127E-01    3.80       0.0  T
   2    -19.0638818 -0.789826E-06  0.754E-02    3.80       1.0  T
   3    -19.0638806  0.126786E-05  0.117E-02    3.80       2.3  T
   4    -19.0638820 -0.146129E-05  0.266E-03    3.80      10.1  T
   5    -19.0638821 -0.543161E-07  0.101E-03    3.80      26.4  T
   6    -19.0638821 -0.130565E-08  0.526E-04    3.80      50.8  T
   7    -19.0638821 -0.573756E-09  0.182E-04    3.80     146.6  T
     SCC iter.                  ...        0 min,  0.002 sec
     gradient                   ...        0 min,  0.001 sec
 * total energy  :   -18.7887022 Eh     change       -0.2071464E-04 Eh
   gradient norm :     0.0050410 Eh/α   predicted    -0.2967494E-04 (  43.26%)
   displ. norm   :     0.1860352 α      lambda       -0.5014725E-04
   maximum displ.:     0.1186692 α      in ANC's #3, #1, #24, ...
 * RMSD in coord.:     0.8125311 α      energy gain  -0.1070064E-01 Eh

generating ANC from model Hessian ...
Using Lindh-Hessian (1995)
 Shifting diagonal of input Hessian by   6.877613324897575E-003
 Lowest  eigenvalues of input Hessian
    0.000000    0.000000    0.000000    0.000000    0.000000    0.000000
    0.010000    0.011233    0.013449    0.020282    0.022030    0.024458
    0.041622    0.049987    0.052275    0.061675    0.069013    0.074441
 Highest eigenvalues
    1.171947    1.203386    1.350521    1.520233    1.954994    2.202268
 

........................................................................
.............................. CYCLE   21 ..............................
........................................................................
   1    -19.0617396 -0.190617E+02  0.245E-01    3.77       0.0  T
   2    -19.0617415 -0.188039E-05  0.145E-01    3.78       1.0  T
   3    -19.0617401  0.131941E-05  0.131E-02    3.79       2.0  T
   4    -19.0617419 -0.176355E-05  0.464E-03    3.79       5.8  T
   5    -19.0617421 -0.153353E-06  0.189E-03    3.79      14.1  T
   6    -19.0617421 -0.712098E-08  0.844E-04    3.79      31.7  T
   7    -19.0617421 -0.159548E-08  0.347E-04    3.79      77.1  T
     SCC iter.                  ...        0 min,  0.002 sec
     gradient                   ...        0 min,  0.001 sec
 * total energy  :   -18.7887231 Eh     change       -0.2086969E-04 Eh
   gradient norm :     0.0034081 Eh/α   predicted     0.0000000E+00 (-100.00%)
   displ. norm   :     0.0160912 α      lambda       -0.2253826E-04
   maximum displ.:     0.0079447 α      in ANC's #8, #3, #4, ...

........................................................................
.............................. CYCLE   22 ..............................
........................................................................
   1    -19.0626982 -0.190627E+02  0.236E-02    3.80       0.0  T
   2    -19.0626983 -0.951400E-07  0.142E-02    3.80       1.9  T
   3    -19.0626983  0.292500E-07  0.222E-03    3.80      12.0  T
   4    -19.0626983 -0.388417E-07  0.974E-04    3.80      27.4  T
   5    -19.0626983 -0.775412E-08  0.365E-04    3.80      73.1  T
     SCC iter.                  ...        0 min,  0.001 sec
     gradient                   ...        0 min,  0.001 sec
 * total energy  :   -18.7887321 Eh     change       -0.9033833E-05 Eh
   gradient norm :     0.0012760 Eh/α   predicted    -0.1127269E-04 (  24.78%)
   displ. norm   :     0.0246917 α      lambda       -0.1124115E-04
   maximum displ.:     0.0138143 α      in ANC's #6, #4, #2, ...

........................................................................
.............................. CYCLE   23 ..............................
........................................................................
   1    -19.0634850 -0.190635E+02  0.304E-02    3.81       0.0  T
   2    -19.0634851 -0.885696E-07  0.181E-02    3.80       1.5  T
   3    -19.0634851  0.596640E-07  0.293E-03    3.80       9.1  T
   4    -19.0634851 -0.773987E-07  0.911E-04    3.80      29.3  T
   5    -19.0634851 -0.542573E-08  0.447E-04    3.80      59.8  T
     SCC iter.                  ...        0 min,  0.001 sec
     gradient                   ...        0 min,  0.001 sec
 * total energy  :   -18.7887326 Eh     change       -0.5174810E-06 Eh
   gradient norm :     0.0024868 Eh/α   predicted    -0.5622752E-05 ( 986.56%)
   displ. norm   :     0.0056527 α      lambda       -0.7466710E-05
   maximum displ.:     0.0028278 α      in ANC's #3, #2, #9, ...

........................................................................
.............................. CYCLE   24 ..............................
........................................................................
   1    -19.0630559 -0.190631E+02  0.743E-03    3.80       0.0  T
   2    -19.0630559 -0.218610E-07  0.449E-03    3.80       5.9  T
   3    -19.0630559  0.194477E-07  0.163E-03    3.80      16.4  T
   4    -19.0630559 -0.228699E-07  0.408E-04    3.80      65.5  T
   5    -19.0630559 -0.133864E-08  0.153E-04    3.80     174.5  T
     SCC iter.                  ...        0 min,  0.001 sec
     gradient                   ...        0 min,  0.001 sec
 * total energy  :   -18.7887380 Eh     change       -0.5352814E-05 Eh
   gradient norm :     0.0009834 Eh/α   predicted    -0.3732161E-05 ( -30.28%)
   displ. norm   :     0.0212086 α      lambda       -0.4388978E-05
   maximum displ.:     0.0115542 α      in ANC's #2, #3, #6, ...

........................................................................
.............................. CYCLE   25 ..............................
........................................................................
   1    -19.0625876 -0.190626E+02  0.164E-02    3.79       0.0  T
   2    -19.0625876 -0.376542E-07  0.977E-03    3.79       2.7  T
   3    -19.0625875  0.820692E-07  0.309E-03    3.79       8.6  T
   4    -19.0625876 -0.945402E-07  0.523E-04    3.79      51.1  T
   5    -19.0625876 -0.160457E-08  0.251E-04    3.79     106.6  T
     SCC iter.                  ...        0 min,  0.001 sec
     gradient                   ...        0 min,  0.001 sec
 * total energy  :   -18.7887407 Eh     change       -0.2763573E-05 Eh
   gradient norm :     0.0008407 Eh/α   predicted    -0.2194270E-05 ( -20.60%)
   displ. norm   :     0.0204647 α      lambda       -0.2114594E-05
   maximum displ.:     0.0129820 α      in ANC's #2, #6, #3, ...

   *** GEOMETRY OPTIMIZATION CONVERGED AFTER 25 ITERATIONS ***

------------------------------------------------------------------------
 total energy gain   :        -0.0107392 Eh       -6.7389 kcal/mol
 total RMSD          :         0.8158934 a0        0.4318 Å
 total power (kW/mol):        -1.1278287 (step) -245.6951 (real)
------------------------------------------------------------------------

 ANCopt (total)                0 d,  0 h,  0 min,  0.115 sec
 optimizer setup                ...        0 min,  0.000 sec (  0.093%)
 model hessian                  ...        0 min,  0.007 sec (  6.350%)
 ANC generation                 ...        0 min,  0.000 sec (  0.418%)
 coordinate transformation      ...        0 min,  0.000 sec (  0.227%)
 single point calculation       ...        0 min,  0.101 sec ( 88.174%)
 optimization log               ...        0 min,  0.002 sec (  1.611%)
 hessian update                 ...        0 min,  0.000 sec (  0.208%)
 rational function              ...        0 min,  0.002 sec (  1.727%)

================
 final structure:
================
14
 xtb: 6.5.1 (579679a)
C           -2.23637366637879        5.38725031886596       -3.56622130639752
C           -3.04331585090206        5.16305767938041       -2.32378103382956
C           -4.27381463719082        4.69265436247595       -2.25262966623596
O           -2.71445202006813        2.78163982383527       -4.64102241346960
C           -3.29982109719492        3.70987714137916       -5.12096729581181
C           -3.00678093962157        5.16137703200601       -4.86414881233598
H           -1.38110519399482        4.70504068141534       -3.54220884504768
H           -1.84129963456573        6.40706441998234       -3.54693993412550
H           -2.51707560380891        5.41809857989296       -1.41219547693237
H           -4.84427812854515        4.40894451945781       -3.12144685699014
H           -4.76829557746633        4.55761810453724       -1.30595788437253
H           -4.12064403706166        3.54897079350958       -5.85164723615660
H           -3.93480196841129        5.73495053028774       -4.87771146635575
H           -2.40419164478979        5.50118601297444       -5.71301177193919
 
 Bond Distances (Angstroems)
 ---------------------------
C1-C2=1.4984         C1-C6=1.5262         C1-H7=1.0943         C1-H8=1.0938         C2-C1=1.4984         C2-C3=1.3193         
C2-H9=1.0830         C3-C2=1.3193         C3-H10=1.0774        C3-H11=1.0765        O4-C5=1.1978         C5-O4=1.1978         
C5-C6=1.5029         C5-H12=1.1106        C6-C1=1.5262         C6-C5=1.5029         C6-H13=1.0911        C6-H14=1.0951        
H7-C1=1.0943         H8-C1=1.0938         H9-C2=1.0830         H10-C3=1.0774        H11-C3=1.0765        H12-C5=1.1106        
H13-C6=1.0911        H14-C6=1.0951        
 C  H  Rav=1.0902 sigma=0.0105  Rmin=1.0765  Rmax=1.1106     8
 C  C  Rav=1.4617 sigma=0.0829  Rmin=1.3193  Rmax=1.5262     4
 O  C  Rav=1.1978 sigma=0.0000  Rmin=1.1978  Rmax=1.1978     1
 
 selected bond angles (degree)
 --------------------
C6-C1-C2=114.28                H7-C1-C2=108.03                H7-C1-C6=108.72                H8-C1-C2=108.63                
H8-C1-C6=109.59                H8-C1-H7=107.37                C3-C2-C1=126.90                H9-C2-C1=113.64                
H9-C2-C3=119.46                H10-C3-C2=122.97               H11-C3-C2=121.37               H11-C3-H10=115.65              
C6-C5-O4=125.78                H12-C5-O4=120.83               H12-C5-C6=113.36               C5-C6-C1=112.75                
H13-C6-C1=111.23               H13-C6-C5=109.86               H14-C6-C1=109.61               H14-C6-C5=105.93               
H14-C6-H13=107.17              
 
 selected dihedral angles (degree)
 ---------------------------------
C3-C2-C1-C6=  6.27            C3-C2-C1-H7=245.14            C3-C2-C1-H8=128.97            H9-C2-C1-C6=185.60            
H9-C2-C1-H7= 64.46            H9-C2-C1-H8=308.30            H10-C3-C2-C1=  0.12           H10-C3-C2-H9=180.83           
H11-C3-C2-C1=179.38           H11-C3-C2-H9=  0.09           C5-C6-C1-C2=288.51            C5-C6-C1-H7= 49.26            
C5-C6-C1-H8=166.33            H13-C6-C1-C2= 52.43           H13-C6-C1-H7=173.18           H13-C6-C1-H8=290.26           
H14-C6-C1-C2=170.77           H14-C6-C1-H7=291.52           H14-C6-C1-H8= 48.60           C1-C6-C5-O4=339.10            
C1-C6-C5-H12=161.04           H13-C6-C5-O4=214.42           H13-C6-C5-H12= 36.36          H14-C6-C5-O4= 98.97           
H14-C6-C5-H12=280.92          
           -------------------------------------------------
          |                Final Singlepoint                |
           -------------------------------------------------

          ...................................................
          :                      SETUP                      :
          :.................................................:
          :  # basis functions                  32          :
          :  # atomic orbitals                  32          :
          :  # shells                           20          :
          :  # electrons                        34          :
          :  max. iterations                   250          :
          :  Hamiltonian                  GFN2-xTB          :
          :  restarted?                      false          :
          :  GBSA solvation                  false          :
          :  PC potential                    false          :
          :  electronic temp.          300.0000000     K    :
          :  accuracy                    1.0000000          :
          :  -> integral cutoff          0.2500000E+02      :
          :  -> integral neglect         0.1000000E-07      :
          :  -> SCF convergence          0.1000000E-05 Eh   :
          :  -> wf. convergence          0.1000000E-03 e    :
          :  Broyden damping             0.4000000          :
          ...................................................

 iter      E             dE          RMSdq      gap      omega  full diag
   1    -19.0625876 -0.190626E+02  0.102E-04    3.79       0.0  T
   2    -19.0625876 -0.141966E-10  0.601E-05    3.79     444.7  T
   3    -19.0625876 -0.122569E-11  0.351E-05    3.79     761.3  T

   *** convergence criteria satisfied after 3 iterations ***

         #    Occupation            Energy/Eh            Energy/eV
      -------------------------------------------------------------
         1        2.0000           -0.7186292             -19.5549
       ...           ...                  ...                  ...
        11        2.0000           -0.4957724             -13.4907
        12        2.0000           -0.4779211             -13.0049
        13        2.0000           -0.4733044             -12.8793
        14        2.0000           -0.4520873             -12.3019
        15        2.0000           -0.4320296             -11.7561
        16        2.0000           -0.4052584             -11.0276
        17        2.0000           -0.4007548             -10.9051 (HOMO)
        18                         -0.2613144              -7.1107 (LUMO)
        19                         -0.2012184              -5.4754
        20                          0.0700710               1.9067
        21                          0.0923354               2.5126
        22                          0.1110931               3.0230
       ...                                ...                  ...
        32                          0.6287620              17.1095
      -------------------------------------------------------------
                  HL-Gap            0.1394404 Eh            3.7944 eV
             Fermi-level           -0.3310346 Eh           -9.0079 eV

 SCC (total)                   0 d,  0 h,  0 min,  0.003 sec
 SCC setup                      ...        0 min,  0.000 sec (  2.608%)
 Dispersion                     ...        0 min,  0.000 sec (  1.013%)
 classical contributions        ...        0 min,  0.000 sec (  0.382%)
 integral evaluation            ...        0 min,  0.000 sec ( 15.089%)
 iterations                     ...        0 min,  0.001 sec ( 36.398%)
 molecular gradient             ...        0 min,  0.001 sec ( 39.919%)
 printout                       ...        0 min,  0.000 sec (  3.446%)

         :::::::::::::::::::::::::::::::::::::::::::::::::::::
         ::                     SUMMARY                     ::
         :::::::::::::::::::::::::::::::::::::::::::::::::::::
         :: total energy             -18.788740745306 Eh    ::
         :: gradient norm              0.000839320903 Eh/a0 ::
         :: HOMO-LUMO gap              3.794366460646 eV    ::
         ::.................................................::
         :: SCC energy               -19.062587625800 Eh    ::
         :: -> isotropic ES            0.023218199750 Eh    ::
         :: -> anisotropic ES          0.003136014129 Eh    ::
         :: -> anisotropic XC          0.010533389190 Eh    ::
         :: -> dispersion             -0.008274241896 Eh    ::
         :: repulsion energy           0.273831011083 Eh    ::
         :: add. restraining           0.000000000000 Eh    ::
         :: total charge              -0.000000000000 e     ::
         :::::::::::::::::::::::::::::::::::::::::::::::::::::

           -------------------------------------------------
          |                Property Printout                |
           -------------------------------------------------

    * Orbital Energies and Occupations

         #    Occupation            Energy/Eh            Energy/eV
      -------------------------------------------------------------
         1        2.0000           -0.7186292             -19.5549
       ...           ...                  ...                  ...
         5        2.0000           -0.5850425             -15.9198
         6        2.0000           -0.5629987             -15.3200
         7        2.0000           -0.5512356             -14.9999
         8        2.0000           -0.5445834             -14.8189
         9        2.0000           -0.5185686             -14.1110
        10        2.0000           -0.5146186             -14.0035
        11        2.0000           -0.4957724             -13.4907
        12        2.0000           -0.4779211             -13.0049
        13        2.0000           -0.4733044             -12.8793
        14        2.0000           -0.4520873             -12.3019
        15        2.0000           -0.4320296             -11.7561
        16        2.0000           -0.4052584             -11.0276
        17        2.0000           -0.4007548             -10.9051 (HOMO)
        18                         -0.2613144              -7.1107 (LUMO)
        19                         -0.2012184              -5.4754
        20                          0.0700710               1.9067
        21                          0.0923354               2.5126
        22                          0.1110931               3.0230
        23                          0.1347805               3.6676
        24                          0.1460723               3.9748
        25                          0.1710043               4.6533
        26                          0.1997458               5.4354
        27                          0.2229597               6.0670
        28                          0.2395533               6.5186
       ...                                ...                  ...
        32                          0.6287620              17.1095
      -------------------------------------------------------------
                  HL-Gap            0.1394404 Eh            3.7944 eV
             Fermi-level           -0.3310346 Eh           -9.0079 eV

     #   Z          covCN         q      C6AA      α(0)
     1   6 C        3.806    -0.055    21.550     6.609
     2   6 C        2.885    -0.026    28.640     8.774
     3   6 C        2.835    -0.092    30.301     9.021
     4   8 O        0.856    -0.320    20.151     6.018
     5   6 C        2.757     0.219    23.373     7.917
     6   6 C        3.803    -0.082    22.056     6.686
     7   1 H        0.924     0.067     2.119     2.276
     8   1 H        0.924     0.044     2.395     2.420
     9   1 H        0.925     0.035     2.521     2.483
    10   1 H        0.926     0.032     2.557     2.501
    11   1 H        0.926     0.037     2.488     2.466
    12   1 H        0.922     0.011     2.875     2.652
    13   1 H        0.924     0.060     2.201     2.320
    14   1 H        0.924     0.069     2.096     2.264

 Mol. C6AA /au·bohr⁶  :       1748.610444
 Mol. C8AA /au·bohr⁸  :      38976.611744
 Mol. α(0) /au        :         64.407260


Wiberg/Mayer (AO) data.
largest (>0.10) Wiberg bond orders for each atom

 ---------------------------------------------------------------------------
     #   Z sym  total        # sym  WBO       # sym  WBO       # sym  WBO
 ---------------------------------------------------------------------------
     1   6 C    3.996 --     2 C    1.026     6 C    1.003     8 H    0.964
                             7 H    0.954
     2   6 C    3.991 --     3 C    1.978     1 C    1.026     9 H    0.966
     3   6 C    3.992 --     2 C    1.978    11 H    0.976    10 H    0.971
     4   8 O    2.099 --     5 C    1.927
     5   6 C    3.917 --     4 O    1.927     6 C    1.010    12 H    0.931
     6   6 C    3.997 --     5 C    1.010     1 C    1.003    13 H    0.961
                            14 H    0.934
     7   1 H    0.996 --     1 C    0.954
     8   1 H    0.998 --     1 C    0.964
     9   1 H    0.999 --     2 C    0.966
    10   1 H    0.999 --     3 C    0.971
    11   1 H    0.999 --     3 C    0.976
    12   1 H    1.000 --     5 C    0.931
    13   1 H    0.996 --     6 C    0.961
    14   1 H    0.995 --     6 C    0.934
 ---------------------------------------------------------------------------

Topologies differ in total number of bonds
Writing topology from bond orders to xtbtopo.mol

molecular dipole:
                 x           y           z       tot (Debye)
 q only:       -0.105       0.947      -0.227
   full:       -0.211       1.082      -0.374       2.960
molecular quadrupole (traceless):
                xx          xy          yy          xz          yz          zz
 q only:       -7.288      -7.701      10.225       4.240     -14.850      -2.938
  q+dip:       -7.113      -8.852       8.683       7.219     -18.146      -1.570
   full:       -7.602      -9.281       8.937       6.576     -18.221      -1.335

           -------------------------------------------------
          |                Geometry Summary                 |
           -------------------------------------------------

      molecular mass/u    :       84.1166104
   center of mass at/Å    :       -3.0902083       4.4549566      -3.8230924
  moments of inertia/u·Å² :        0.9123717E+02   0.1855596E+03   0.2185975E+03
rotational constants/cm⁻¹ :        0.1847672E+00   0.9084755E-01   0.7711723E-01

 * 10 selected distances

     #   Z          #   Z                                           value/Å
     2   6 C        3   6 C                                       1.3192685
     4   8 O        5   6 C                                       1.1977599
     1   6 C        6   6 C                                       1.5261593 (max)
     1   6 C        7   1 H                                       1.0942902
     1   6 C        8   1 H                                       1.0938356
     2   6 C        9   1 H                                       1.0830342
     3   6 C       10   1 H                                       1.0773873
     3   6 C       11   1 H                                       1.0765379 (min)
     6   6 C       13   1 H                                       1.0910517
     6   6 C       14   1 H                                       1.0950582

 * 3 distinct bonds (by element types)

   Z      Z             #   av. dist./Å        max./Å        min./Å
   1 H    6 C           7     1.0873136     1.0950582     1.0765379
   6 C    6 C           2     1.4227139     1.5261593     1.3192685
   6 C    8 O           1     1.1977599     1.1977599     1.1977599


optimized geometry written to: xtbopt.xyz


           -------------------------------------------------
          | TOTAL ENERGY              -18.788740745306 Eh   |
          | GRADIENT NORM               0.000839320903 Eh/α |
          | HOMO-LUMO GAP               3.794366460646 eV   |
           -------------------------------------------------

------------------------------------------------------------------------
 * finished run on 2023/06/22 at 11:25:47.150     
------------------------------------------------------------------------
 total:
 * wall-time:     0 d,  0 h,  0 min,  0.165 sec
 *  cpu-time:     0 d,  0 h,  0 min,  0.294 sec
 * ratio c/w:     1.777 speedup
 SCF:
 * wall-time:     0 d,  0 h,  0 min,  0.007 sec
 *  cpu-time:     0 d,  0 h,  0 min,  0.014 sec
 * ratio c/w:     2.000 speedup
 ANC optimizer:
 * wall-time:     0 d,  0 h,  0 min,  0.118 sec
 *  cpu-time:     0 d,  0 h,  0 min,  0.236 sec
 * ratio c/w:     2.000 speedup

normal termination of xtb
