14
 energy: -18.788740745306 gnorm: 0.000839320903 xtb: 6.5.1 (579679a)
C           -2.23637366637879        5.38725031886596       -3.56622130639752
C           -3.04331585090206        5.16305767938041       -2.32378103382956
C           -4.27381463719082        4.69265436247595       -2.25262966623596
O           -2.71445202006813        2.78163982383527       -4.64102241346960
C           -3.29982109719492        3.70987714137916       -5.12096729581181
C           -3.00678093962157        5.16137703200601       -4.86414881233598
H           -1.38110519399482        4.70504068141534       -3.54220884504768
H           -1.84129963456573        6.40706441998234       -3.54693993412550
H           -2.51707560380891        5.41809857989296       -1.41219547693237
H           -4.84427812854515        4.40894451945781       -3.12144685699014
H           -4.76829557746633        4.55761810453724       -1.30595788437253
H           -4.12064403706166        3.54897079350958       -5.85164723615660
H           -3.93480196841129        5.73495053028774       -4.87771146635575
H           -2.40419164478979        5.50118601297444       -5.71301177193919
