14
 energy: -18.778001563840 gnorm: 0.073622776495 xtb: 6.5.1 (579679a)
C           -2.25928000000000        5.45148000000000       -3.60846000000000
C           -2.92935000000000        4.99825000000000       -2.33658000000000
C           -4.24642000000000        4.78174000000000       -2.26587000000000
O           -3.46222000000000        2.91826000000000       -4.14695000000000
C           -3.27754000000000        3.67154000000000       -5.08970000000000
C           -3.08063000000000        5.14585000000000       -4.87217000000000
H           -1.27023000000000        4.95123000000000       -3.69523000000000
H           -2.08542000000000        6.54746000000000       -3.54485000000000
H           -2.32269000000000        4.85242000000000       -1.44769000000000
H           -4.88610000000000        4.92487000000000       -3.13097000000000
H           -4.69333000000000        4.46000000000000       -1.33090000000000
H           -3.27281000000000        3.27106000000000       -6.09824000000000
H           -4.06942000000000        5.64967000000000       -4.82490000000000
H           -2.53081000000000        5.55390000000000       -5.74738000000000
14
 energy: -18.783658925278 gnorm: 0.029147455532 xtb: 6.5.1 (579679a)
C           -2.27485075442149        5.43928542234013       -3.60396116204812
C           -2.95919234315441        5.02063151673070       -2.33223060225564
C           -4.26251428419888        4.82096376799330       -2.21146812319759
O           -3.43455037035566        2.86427984100193       -4.21013867560636
C           -3.27489784270585        3.66300240011533       -5.10113628146139
C           -3.04978110888983        5.13601073173488       -4.89185664538359
H           -1.29554302793423        4.94807398288280       -3.67176836072876
H           -2.08248290463510        6.52104625702115       -3.55731397029232
H           -2.31992553509049        4.87833683794589       -1.47099392932690
H           -4.93073787176137        4.90869837718605       -3.05206512465535
H           -4.68743290908600        4.47743506329252       -1.28464121076411
H           -3.26734294927100        3.31334256161252       -6.14109989723237
H           -4.02727631673176        5.63125611783955       -4.85417797195822
H           -2.51972178176391        5.55536712230328       -5.75703804508931
14
 energy: -18.784922246034 gnorm: 0.012875411095 xtb: 6.5.1 (579679a)
C           -2.27874547818928        5.43442468907561       -3.60025490095224
C           -2.97559494989911        5.01026474652451       -2.34253008315948
C           -4.26728003599785        4.79959733811741       -2.19236375150832
O           -3.40242078215241        2.82295293054581       -4.26186724583330
C           -3.23696477215160        3.65138003712578       -5.11100142716438
C           -3.02948888835511        5.12483319461451       -4.89843647076621
H           -1.30291314743074        4.94885893710115       -3.64049935235208
H           -2.09190258969372        6.51074578095024       -3.55520125440503
H           -2.31613398839547        4.91083270334960       -1.49066207806588
H           -4.97116673802476        4.91910023502546       -2.99531185661892
H           -4.69074026339656        4.53958373636474       -1.24005531120052
H           -3.30473655946188        3.36427424213408       -6.18713415633086
H           -4.01444976075921        5.59380045676019       -4.87135179722863
H           -2.50371204609229        5.54708097231098       -5.75322031441419
14
 energy: -18.785512468426 gnorm: 0.011032158271 xtb: 6.5.1 (579679a)
C           -2.27788862169264        5.42724441451441       -3.59985064726364
C           -2.98440769847092        5.02529400791175       -2.33984199924293
C           -4.27700748182035        4.82806418976229       -2.17565507180806
O           -3.34721849090521        2.79733026501518       -4.29067958521987
C           -3.25377293349615        3.65142145943569       -5.12783312566960
C           -3.03077334357662        5.11916405608219       -4.89685683355937
H           -1.30778920981975        4.92703447698290       -3.62568005662885
H           -2.08326272878792        6.50309965165062       -3.55610491237605
H           -2.31744815149531        4.92494980327825       -1.49298342802856
H           -4.98893811417322        4.90825363521517       -2.98004168628630
H           -4.69087306762250        4.55673588049011       -1.22156545949941
H           -3.30791777277392        3.38866181361261       -6.21429851278028
H           -4.01946160984900        5.58276026650448       -4.86871858008795
H           -2.49949077551645        5.53771607954444       -5.74978010154919
14
 energy: -18.785779881615 gnorm: 0.009070750493 xtb: 6.5.1 (579679a)
C           -2.28036781626625        5.42170540945658       -3.59777736782509
C           -2.99024353609554        5.03855863760041       -2.33130861626275
C           -4.28420605212709        4.84695935117610       -2.16402482376556
O           -3.30664670818220        2.78847870568541       -4.30932650390208
C           -3.23658565373785        3.64723802066323       -5.14192550204539
C           -3.02672115545960        5.11508871089180       -4.89885336124335
H           -1.31337992795415        4.91170511229883       -3.61923512984551
H           -2.07803142031254        6.49821394129298       -3.55783262790165
H           -2.32493780568385        4.93824960935811       -1.48265987916474
H           -4.99679244898196        4.89811735982572       -2.97302440594457
H           -4.68997632694620        4.55960462591275       -1.20997432103284
H           -3.34781112604051        3.40072573149306       -6.23005783132004
H           -4.01985871366330        5.57460983491415       -4.87430732767462
H           -2.49069130854891        5.53847494943098       -5.74958230207192
14
 energy: -18.786152714867 gnorm: 0.011896012734 xtb: 6.5.1 (579679a)
C           -2.28489339001597        5.41092790856000       -3.59536946459367
C           -2.99705875133819        5.04082099848153       -2.32443457114269
C           -4.29076149861900        4.84586569701759       -2.15921021084984
O           -3.22660101192222        2.77504984943559       -4.33143497570892
C           -3.22658922165656        3.64486847579252       -5.15974621190796
C           -3.02467428887453        5.11179029637844       -4.90086805669713
H           -1.32299800762772        4.88947466431694       -3.61512380078102
H           -2.06924503703573        6.48681955705848       -3.55797930004411
H           -2.33918132870452        4.95962283504155       -1.46708705484835
H           -5.00606357219664        4.89862879399849       -2.96354075152897
H           -4.69420174295656        4.58400597824751       -1.19353995338692
H           -3.39818401722668        3.41481853414640       -6.24272891247729
H           -4.02006631063453        5.56968679254551       -4.88023205374586
H           -2.48573182119110        5.54534961897956       -5.74859468228739
14
 energy: -18.786553723478 gnorm: 0.012938702492 xtb: 6.5.1 (579679a)
C           -2.28783655756793        5.40165436804364       -3.59341970702994
C           -3.00470658572015        5.04248330580192       -2.32345761106997
C           -4.29749908020146        4.83990123050937       -2.16185867397808
O           -3.13540587276479        2.77239619366535       -4.34821911270987
C           -3.21735066915238        3.64679324065299       -5.16840310708592
C           -3.02543563195337        5.11315633838289       -4.90000261257483
H           -1.33523942756940        4.86353109401404       -3.61084057347984
H           -2.05100749583234        6.47334789681278       -3.55567508467455
H           -2.35354166299943        4.98003396511425       -1.45934461950946
H           -5.01385593058906        4.88638580086938       -2.96255131249336
H           -4.69876111245909        4.60543929850490       -1.18692754648660
H           -3.46234137338118        3.42748068476723       -6.23425709869379
H           -4.02077072817411        5.57085654145833       -4.89240931966017
H           -2.48249787163525        5.55427004140309       -5.74252362055376
14
 energy: -18.786940017682 gnorm: 0.010113369881 xtb: 6.5.1 (579679a)
C           -2.28596894172034        5.39781993095009       -3.59143811792153
C           -3.01064964377277        5.04779407591465       -2.32633908953406
C           -4.30206970311293        4.83336827924508       -2.17089483382772
O           -3.06319689309595        2.77329098128732       -4.36017305637366
C           -3.21293951088062        3.65105336613423       -5.16498648281687
C           -3.02629919181456        5.11742484280480       -4.89565592951404
H           -1.34385970713530        4.84276222748883       -3.60685315751497
H           -2.02943411094729        6.46354804801825       -3.55261430307557
H           -2.36434589258245        5.00188373986083       -1.45805427051128
H           -5.01550030806584        4.86682694403383       -2.97304265557002
H           -4.70427746334587        4.60957947111191       -1.19658531589398
H           -3.52648382541436        3.43786714919014       -6.21037504262820
H           -4.01911430072143        5.57661640886124       -4.89653398172905
H           -2.48211050739023        5.55789453509897       -5.73634376308920
14
 energy: -18.787317483523 gnorm: 0.019252457706 xtb: 6.5.1 (579679a)
C           -2.27879828267750        5.39477379461807       -3.58741000359147
C           -3.01838000634061        5.06210957994760       -2.32827370936837
C           -4.30768782300372        4.82470877002199       -2.18547735680709
O           -2.95913415007776        2.76930970989918       -4.38457681508310
C           -3.21263399890810        3.65868908187003       -5.15764820747976
C           -3.02547901320531        5.12454424032821       -4.88846772057311
H           -1.35225723556557        4.81368642911036       -3.59706991580527
H           -1.99457024613116        6.45189541603140       -3.54847142423147
H           -2.38062790185566        5.04299538323976       -1.45248157888849
H           -5.01071793339667        4.81929127534205       -3.00044440165544
H           -4.71791389506578        4.61335196501512       -1.21413270306637
H           -3.63332661704291        3.45631730827517       -6.17310548205653
H           -4.01361850201447        5.58900603105270       -4.89063101714004
H           -2.48110439471473        5.55705101524855       -5.73169966425363
14
 energy: -18.787545028268 gnorm: 0.027745163357 xtb: 6.5.1 (579679a)
C           -2.26464355134650        5.40227529842553       -3.58309083893757
C           -3.02015774238761        5.08272788007194       -2.33457008931009
C           -4.30451804845543        4.78872787909530       -2.21675417026249
O           -2.89069784304068        2.79175119642303       -4.41842360287129
C           -3.23229787417481        3.67854027142369       -5.12851182878402
C           -3.02633333793734        5.14404971772356       -4.87835977174457
H           -1.35991512597676        4.78821409496443       -3.59018308984772
H           -1.94439939600708        6.44492590641008       -3.54121510771522
H           -2.39437696842801        5.10733379800751       -1.44900054794965
H           -4.98363565899849        4.72608514333053       -3.05886229892929
H           -4.73521607697350        4.58712618860025       -1.25714877675309
H           -3.75428954165497        3.45942306853974       -6.07271274819488
H           -4.00021356138409        5.63041327683418       -4.88133976603615
H           -2.47555527323468        5.54613628015041       -5.72971736266411
14
 energy: -18.787525999392 gnorm: 0.038235430316 xtb: 6.5.1 (579679a)
C           -2.25560671862015        5.39680206649021       -3.57798407858570
C           -3.02843345190172        5.10385081926581       -2.33129719621222
C           -4.30685553616981        4.77059380812383       -2.23490563906136
O           -2.76192788472603        2.78638475822593       -4.46503042140048
C           -3.24026006331657        3.68768521328224       -5.12229050728079
C           -3.02484299728759        5.15135619402449       -4.87141166480107
H           -1.36901067205480        4.75331874693655       -3.57802919569612
H           -1.90416068233787        6.43058218367895       -3.53862560875629
H           -2.42111249342157        5.17616542617924       -1.43047980172609
H           -4.96542867813419        4.67190889849215       -3.09109877523346
H           -4.75456528686126        4.57683296896958       -1.28117126050627
H           -3.89545761718344        3.47924343315769       -6.01672745876192
H           -3.99099304447177        5.65440781014357       -4.87322436289336
H           -2.46759487351318        5.53859767302995       -5.72761402908502
14
 energy: -18.788127177886 gnorm: 0.004497697395 xtb: 6.5.1 (579679a)
C           -2.26349701701302        5.39576604411352       -3.58181025352886
C           -3.02364768715109        5.09070015538053       -2.32607807196961
C           -4.30104239747733        4.78903867779418       -2.21536728833841
O           -2.85315372650114        2.77465927481247       -4.44487353227874
C           -3.23658030324529        3.67425465916719       -5.13625567373880
C           -3.02407971042306        5.13830283774359       -4.87865211328085
H           -1.35903538240357        4.78237852066376       -3.58498893521950
H           -1.94487643644724        6.44116883240887       -3.54690620934473
H           -2.41237511520597        5.13623962534519       -1.43198585777113
H           -4.96784150358207        4.73018560093701       -3.05486910364621
H           -4.74144011344406        4.57922234829048       -1.25725063319459
H           -3.79346836525460        3.47169292934585       -6.07390609754122
H           -3.99712860516754        5.63467837426053       -4.87566607992244
H           -2.46808363668398        5.53944211973702       -5.73128015022508
14
 energy: -18.788214841805 gnorm: 0.008035806323 xtb: 6.5.1 (579679a)
C           -2.26046874581575        5.39778607242741       -3.57928233820186
C           -3.02400561953394        5.09732142949116       -2.32534113006379
C           -4.30017798553910        4.77951900649928       -2.21840319982962
O           -2.84146773258098        2.77697193576176       -4.46075268061564
C           -3.24158985923281        3.67782152956934       -5.13503361290542
C           -3.02043712305802        5.14050489736409       -4.87633237229330
H           -1.36020784127210        4.77699789449392       -3.57777626717793
H           -1.93432301614241        6.44134229394907       -3.54611058190367
H           -2.41599003697698        5.15955964238946       -1.42886027909996
H           -4.96208686833074        4.68308193332435       -3.06841774200236
H           -4.74491116940341        4.58695230080796       -1.25621009623084
H           -3.83202316312905        3.47970125958564       -6.05954153635689
H           -3.98886431140321        5.64479806131045       -4.87939159022432
H           -2.45969652758145        5.53537174302629       -5.72843657309456
14
 energy: -18.788329063709 gnorm: 0.008154903287 xtb: 6.5.1 (579679a)
C           -2.25744168265638        5.39650591275895       -3.57740242444330
C           -3.02547879009004        5.10694666216018       -2.32362540324746
C           -4.29905092217980        4.77041190899322       -2.22268816712335
O           -2.81080351570916        2.77313324200643       -4.48600147453879
C           -3.25207549506839        3.68194259722597       -5.13277882820433
C           -3.02171280123972        5.14301203672639       -4.87283545051273
H           -1.36332072607689        4.76524288436096       -3.57237866789370
H           -1.92070660614617        6.43755167000812       -3.54699225602756
H           -2.42418400679668        5.19092080941321       -1.42407097816804
H           -4.95231646121348        4.65055668375861       -3.07844115179928
H           -4.75077022329317        4.58389927827394       -1.26249093762329
H           -3.87165650390006        3.48984055234395       -6.03479679584739
H           -3.98310934448699        5.66088105168843       -4.87964049139916
H           -2.45362292114301        5.52688471028183       -5.72574697317178
14
 energy: -18.788369195370 gnorm: 0.014514036493 xtb: 6.5.1 (579679a)
C           -2.25262226979571        5.39608817751205       -3.57386965225445
C           -3.02827740900125        5.11944326571304       -2.32148468823404
C           -4.29559352197695        4.75552356552420       -2.23047374705490
O           -2.77351075505403        2.76953092039603       -4.51908206773028
C           -3.26144901762472        3.68453206947416       -5.12826941945247
C           -3.01725880659760        5.14348808652968       -4.86932443176527
H           -1.36343125957887        4.75873240076099       -3.56307412512926
H           -1.90957965286429        6.43471732840318       -3.54703177281368
H           -2.43943877708741        5.23631442731214       -1.41691113034132
H           -4.93495231829773        4.62148565155907       -3.08703342124347
H           -4.75711662961117        4.56598105313198       -1.27768831009661
H           -3.94217897186055        3.50317916745435       -6.00096596368212
H           -3.97091305785178        5.67581532864549       -4.88102273210828
H           -2.43992755279789        5.51289855758384       -5.72365853809400
14
 energy: -18.788483629482 gnorm: 0.004138297863 xtb: 6.5.1 (579679a)
C           -2.25416163857991        5.39490666700941       -3.57474922786098
C           -3.02779565920710        5.11563802371009       -2.32159912381757
C           -4.29407786968206        4.75755698590426       -2.22850137773312
O           -2.78798873861452        2.77112839082922       -4.51448675320905
C           -3.26240147708353        3.68445350073130       -5.12891655999848
C           -3.01842159387350        5.14355415279925       -4.87081016309139
H           -1.36262872483776        4.76153423256156       -3.56631510210434
H           -1.91446026638590        6.43490592625353       -3.54741210209396
H           -2.43989146759042        5.23037474763612       -1.41805498357993
H           -4.93227582106578        4.62247830410137       -3.08457020007889
H           -4.75462958003703        4.56969465914305       -1.27425687389240
H           -3.92466032312540        3.50186354845069       -6.00471968628392
H           -3.97208032765188        5.67555965751106       -4.88103141286706
H           -2.44077651226517        5.51408120335929       -5.72446643338908
14
 energy: -18.788553102902 gnorm: 0.004107112192 xtb: 6.5.1 (579679a)
C           -2.25167710484256        5.39350623605567       -3.57303524118371
C           -3.02943284094925        5.12197240157362       -2.32076936482662
C           -4.29074638677710        4.74608936960905       -2.23307001311668
O           -2.77502907941993        2.77366906847750       -4.53472003910832
C           -3.27169070744844        3.68945034023293       -5.12644492982289
C           -3.01756832201771        5.14719566301134       -4.86903253176765
H           -1.36440017622347        4.75340141983386       -3.56351879327708
H           -1.90385543405895        6.43153371635608       -3.54699877243239
H           -2.45074015613622        5.26052944045976       -1.41413979804359
H           -4.91748229846492        4.57681096026872       -3.09665176551776
H           -4.75702630085270        4.57312475345710       -1.27710787777566
H           -3.95940830773146        3.51082227343706       -5.98005800003126
H           -3.96455853714551        5.69053921105348       -4.88245709192564
H           -2.43263434793174        5.50908514617403       -5.72188578117093
14
 energy: -18.788633456120 gnorm: 0.003354766480 xtb: 6.5.1 (579679a)
C           -2.24711398096976        5.39366597583877       -3.57039555697407
C           -3.03283423142336        5.13413916045436       -2.32060454283125
C           -4.28601979551333        4.72751007673427       -2.24116119112614
O           -2.75391835993934        2.77615532156505       -4.56540318588118
C           -3.28362141954856        3.69516261004488       -5.12151381769466
C           -3.01397539140535        5.15109224790168       -4.86647173386020
H           -1.36599870286866        4.74401702341742       -3.55742024564204
H           -1.88888069297624        6.42859009812499       -3.54628134416884
H           -2.46851029309245        5.30517324854345       -1.41166694359346
H           -4.89625272322567        4.52458729355016       -3.10830090685026
H           -4.76033349286958        4.56583763204436       -1.28732591734942
H           -4.01755803165884        3.52301065148092       -5.93999002825214
H           -3.95186608710723        5.70909838423710       -4.88486082781464
H           -2.41936679740159        5.49969027606278       -5.71849375796189
14
 energy: -18.788681492991 gnorm: 0.003531171703 xtb: 6.5.1 (579679a)
C           -2.24295361991497        5.39241003393530       -3.56845089858533
C           -3.03639128424882        5.14239165935391       -2.32213806854985
C           -4.28155605112196        4.71338229909598       -2.24706150526940
O           -2.73569334645686        2.77717687707605       -4.59589469417734
C           -3.29273023320351        3.70031707147017       -5.11823087915620
C           -3.01053850854182        5.15457491544077       -4.86509288180371
H           -1.36809029278943        4.73447079471913       -3.55185547101940
H           -1.87529067663279        6.42352486740065       -3.54483723088107
H           -2.48660209495260        5.34876518369175       -1.41007202817188
H           -4.87666837891009        4.48192365447121       -3.11495130090055
H           -4.76254913536743        4.55848072914093       -1.29659369330140
H           -4.06643722496497        3.53456533144165       -5.90283783482832
H           -3.94161797478978        5.72246107163879       -4.88604440348073
H           -2.40913117810495        5.49328551112390       -5.71582910987499
14
 energy: -18.788702207631 gnorm: 0.005058428841 xtb: 6.5.1 (579679a)
C           -2.24071161740643        5.39262262970032       -3.56784478520094
C           -3.03907328853254        5.15026589108191       -2.32311006461773
C           -4.27916468728951        4.70567531159506       -2.24964491892426
O           -2.73174475043448        2.77884969641961       -4.61035729317564
C           -3.29589989190794        3.70324966770501       -5.11709524249612
C           -3.00801838058347        5.15670198134847       -4.86521537492135
H           -1.37038495943072        4.72874704580085       -3.54870785726060
H           -1.86657929930450        6.42089153701079       -3.54541916739395
H           -2.49713735505656        5.36687992518698       -1.41332464645602
H           -4.86637025183809        4.46026927729024       -3.11551928747720
H           -4.76303101072009        4.55473056087089       -1.30080824991931
H           -4.08570818538888        3.53916403484435       -5.88225698079680
H           -3.93713750956340        5.72666070915260       -4.88566570999305
H           -2.40528881254336        5.49302173199313       -5.71492042136721
14
 energy: -18.788723077319 gnorm: 0.003408145817 xtb: 6.5.1 (579679a)
C           -2.23695828000162        5.39012104503142       -3.56622870568055
C           -3.04242205342868        5.16073977287955       -2.32334402895434
C           -4.27510646118004        4.69319747701190       -2.25417293818223
O           -2.71521564093073        2.78045834819910       -4.63924653200369
C           -3.30368080540324        3.70918901709656       -5.11615465755487
C           -3.00592228603556        5.16080101944065       -4.86416052275059
H           -1.37514298996581        4.71503490934806       -3.54354791886757
H           -1.84984707872732        6.41357312186510       -3.54587829602510
H           -2.51365219107374        5.40746111332565       -1.41123700426730
H           -4.84800196470337        4.41356836448813       -3.12356113422221
H           -4.76610125789165        4.55374652836863       -1.30652357024120
H           -4.12515337508401        3.54946074762491       -5.84913078047782
H           -3.93031195570522        5.73874851770438       -4.88387223739603
H           -2.39873365986899        5.49163001761617       -5.71283167337670
14
 energy: -18.788732111152 gnorm: 0.001276045641 xtb: 6.5.1 (579679a)
C           -2.23707485255473        5.38956335531428       -3.56634514306746
C           -3.04268569850105        5.15982868179233       -2.32400484625705
C           -4.27429813943162        4.69246898368535       -2.25429705482491
O           -2.71606656966466        2.78129026706755       -4.63892450327956
C           -3.30079617414095        3.70951014600307       -5.11897773293543
C           -3.00527491912255        5.16098392473453       -4.86491397993867
H           -1.37687896192829        4.71347133509890       -3.54290053980974
H           -1.84863494079058        6.41214730292861       -3.54589462022457
H           -2.51517003213652        5.40942713699914       -1.41189976477977
H           -4.84675966084017        4.41394765992533       -3.12334536718507
H           -4.76645436811663        4.55373657002966       -1.30696838701052
H           -4.12650016908571        3.54888741100019       -5.84493913296001
H           -3.93107117524329        5.73760940483020       -4.88321144394555
H           -2.39858433844323        5.49485782059107       -5.71326748378187
14
 energy: -18.788732628633 gnorm: 0.002486844571 xtb: 6.5.1 (579679a)
C           -2.23678090722486        5.38863515027969       -3.56643971140336
C           -3.04322948542871        5.16121949794664       -2.32457871882697
C           -4.27390123398237        4.69384449920224       -2.25384791980704
O           -2.71563635639014        2.78198931338542       -4.64024365571692
C           -3.30293957616583        3.70958309885485       -5.11648601292713
C           -3.00621501177717        5.16103106610398       -4.86455722682796
H           -1.37974372404674        4.70952542813885       -3.54201537167386
H           -1.84501543530526        6.40954916649938       -3.54689272290079
H           -2.51614737217461        5.41254922673226       -1.41256622582788
H           -4.84469891521689        4.41285920649726       -3.12232065715880
H           -4.76670305617418        4.55401147045615       -1.30682939569818
H           -4.12050163268178        3.54850114091485       -5.84926468836527
H           -3.93318350601333        5.73671757094369       -4.88002569257218
H           -2.40155378741811        5.49771416404494       -5.71382200029385
14
 energy: -18.788737981447 gnorm: 0.000983425356 xtb: 6.5.1 (579679a)
C           -2.23662359566359        5.38850259608918       -3.56640894924885
C           -3.04331956230294        5.16197950966004       -2.32440710589898
C           -4.27416391225397        4.69375636310590       -2.25365647016891
O           -2.71533274968267        2.78172375185293       -4.64006251017252
C           -3.30189948205812        3.70964365434158       -5.11782490476207
C           -3.00624398450508        5.16117412901404       -4.86450562418619
H           -1.37976901449553        4.70878737384895       -3.54211585570518
H           -1.84430702394475        6.40928870547241       -3.54687053250788
H           -2.51602080127350        5.41316711296679       -1.41243837379560
H           -4.84481248424155        4.41164062224254       -3.12228722159673
H           -4.76715122032893        4.55457928852698       -1.30669674312466
H           -4.12135640894582        3.54865311726352       -5.84918426913387
H           -3.93332416384756        5.73646904064010       -4.87988432854947
H           -2.40192559645596        5.49836473497527       -5.71354711114928
14
 energy: -18.788740745020 gnorm: 0.000840730343 xtb: 6.5.1 (579679a)
C           -2.23637366637879        5.38725031886596       -3.56622130639752
C           -3.04331585090206        5.16305767938041       -2.32378103382956
C           -4.27381463719082        4.69265436247595       -2.25262966623596
O           -2.71445202006813        2.78163982383527       -4.64102241346960
C           -3.29982109719492        3.70987714137916       -5.12096729581181
C           -3.00678093962157        5.16137703200601       -4.86414881233598
H           -1.38110519399482        4.70504068141534       -3.54220884504768
H           -1.84129963456573        6.40706441998234       -3.54693993412550
H           -2.51707560380891        5.41809857989296       -1.41219547693237
H           -4.84427812854515        4.40894451945781       -3.12144685699014
H           -4.76829557746633        4.55761810453724       -1.30595788437253
H           -4.12064403706166        3.54897079350958       -5.85164723615660
H           -3.93480196841129        5.73495053028774       -4.87771146635575
H           -2.40419164478979        5.50118601297444       -5.71301177193919
