
                                 *****************
                                 * O   R   C   A *
                                 *****************

                                            #,                                       
                                            ###                                      
                                            ####                                     
                                            #####                                    
                                            ######                                   
                                           ########,                                 
                                     ,,################,,,,,                         
                               ,,#################################,,                 
                          ,,##########################################,,             
                       ,#########################################, ''#####,          
                    ,#############################################,,   '####,        
                  ,##################################################,,,,####,       
                ,###########''''           ''''###############################       
              ,#####''   ,,,,##########,,,,          '''####'''          '####       
            ,##' ,,,,###########################,,,                        '##       
           ' ,,###''''                  '''############,,,                           
         ,,##''                                '''############,,,,        ,,,,,,###''
      ,#''                                            '''#######################'''  
     '                                                          ''''####''''         
             ,#######,   #######,   ,#######,      ##                                
            ,#'     '#,  ##    ##  ,#'     '#,    #''#        ######   ,####,        
            ##       ##  ##   ,#'  ##            #'  '#       #        #'  '#        
            ##       ##  #######   ##           ,######,      #####,   #    #        
            '#,     ,#'  ##    ##  '#,     ,#' ,#      #,         ##   #,  ,#        
             '#######'   ##     ##  '#######'  #'      '#     #####' # '####'        



                  #######################################################
                  #                        -***-                        #
                  #          Department of theory and spectroscopy      #
                  #    Directorship and core code : Frank Neese         #
                  #        Max Planck Institute fuer Kohlenforschung    #
                  #                Kaiser Wilhelm Platz 1               #
                  #                 D-45470 Muelheim/Ruhr               #
                  #                      Germany                        #
                  #                                                     #
                  #                  All rights reserved                #
                  #                        -***-                        #
                  #######################################################


                         Program Version 5.0.2 -  RELEASE  -


 With contributions from (in alphabetic order):
   Daniel Aravena         : Magnetic Suceptibility
   Michael Atanasov       : Ab Initio Ligand Field Theory (pilot matlab implementation)
   Alexander A. Auer      : GIAO ZORA, VPT2 properties, NMR spectrum
   Ute Becker             : Parallelization
   Giovanni Bistoni       : ED, misc. LED, open-shell LED, HFLD
   Martin Brehm           : Molecular dynamics
   Dmytro Bykov           : SCF Hessian
   Vijay G. Chilkuri      : MRCI spin determinant printing, contributions to CSF-ICE
   Dipayan Datta          : RHF DLPNO-CCSD density
   Achintya Kumar Dutta   : EOM-CC, STEOM-CC
   Dmitry Ganyushin       : Spin-Orbit,Spin-Spin,Magnetic field MRCI
   Miquel Garcia          : C-PCM and meta-GGA Hessian, CC/C-PCM, Gaussian charge scheme
   Yang Guo               : DLPNO-NEVPT2, F12-NEVPT2, CIM, IAO-localization
   Andreas Hansen         : Spin unrestricted coupled pair/coupled cluster methods
   Benjamin Helmich-Paris : MC-RPA, TRAH-SCF, COSX integrals
   Lee Huntington         : MR-EOM, pCC
   Robert Izsak           : Overlap fitted RIJCOSX, COSX-SCS-MP3, EOM
   Marcus Kettner         : VPT2
   Christian Kollmar      : KDIIS, OOCD, Brueckner-CCSD(T), CCSD density, CASPT2, CASPT2-K
   Simone Kossmann        : Meta GGA functionals, TD-DFT gradient, OOMP2, MP2 Hessian
   Martin Krupicka        : Initial AUTO-CI
   Lucas Lang             : DCDCAS
   Marvin Lechner         : AUTO-CI (C++ implementation), FIC-MRCC
   Dagmar Lenk            : GEPOL surface, SMD
   Dimitrios Liakos       : Extrapolation schemes; Compound Job, initial MDCI parallelization
   Dimitrios Manganas     : Further ROCIS development; embedding schemes
   Dimitrios Pantazis     : SARC Basis sets
   Anastasios Papadopoulos: AUTO-CI, single reference methods and gradients
   Taras Petrenko         : DFT Hessian,TD-DFT gradient, ASA, ECA, R-Raman, ABS, FL, XAS/XES, NRVS
   Peter Pinski           : DLPNO-MP2, DLPNO-MP2 Gradient
   Christoph Reimann      : Effective Core Potentials
   Marius Retegan         : Local ZFS, SOC
   Christoph Riplinger    : Optimizer, TS searches, QM/MM, DLPNO-CCSD(T), (RO)-DLPNO pert. Triples
   Tobias Risthaus        : Range-separated hybrids, TD-DFT gradient, RPA, STAB
   Michael Roemelt        : Original ROCIS implementation
   Masaaki Saitow         : Open-shell DLPNO-CCSD energy and density
   Barbara Sandhoefer     : DKH picture change effects
   Avijit Sen             : IP-ROCIS
   Kantharuban Sivalingam : CASSCF convergence, NEVPT2, FIC-MRCI
   Bernardo de Souza      : ESD, SOC TD-DFT
   Georgi Stoychev        : AutoAux, RI-MP2 NMR, DLPNO-MP2 response
   Willem Van den Heuvel  : Paramagnetic NMR
   Boris Wezisla          : Elementary symmetry handling
   Frank Wennmohs         : Technical directorship


 We gratefully acknowledge several colleagues who have allowed us to
 interface, adapt or use parts of their codes:
   Stefan Grimme, W. Hujo, H. Kruse, P. Pracht,  : VdW corrections, initial TS optimization,
                  C. Bannwarth, S. Ehlert          DFT functionals, gCP, sTDA/sTD-DF
   Ed Valeev, F. Pavosevic, A. Kumar             : LibInt (2-el integral package), F12 methods
   Garnet Chan, S. Sharma, J. Yang, R. Olivares  : DMRG
   Ulf Ekstrom                                   : XCFun DFT Library
   Mihaly Kallay                                 : mrcc  (arbitrary order and MRCC methods)
   Jiri Pittner, Ondrej Demel                    : Mk-CCSD
   Frank Weinhold                                : gennbo (NPA and NBO analysis)
   Christopher J. Cramer and Donald G. Truhlar   : smd solvation model
   Lars Goerigk                                  : TD-DFT with DH, B97 family of functionals
   V. Asgeirsson, H. Jonsson                     : NEB implementation
   FAccTs GmbH                                   : IRC, NEB, NEB-TS, DLPNO-Multilevel, CI-OPT
                                                   MM, QMMM, 2- and 3-layer-ONIOM, Crystal-QMMM,
                                                   LR-CPCM, SF, NACMEs, symmetry and pop. for TD-DFT,
                                                   nearIR, NL-DFT gradient (VV10), updates on ESD,
                                                   ML-optimized integration grids
   S Lehtola, MJT Oliveira, MAL Marques          : LibXC Library
   Liviu Ungur et al                             : ANISO software


 Your calculation uses the libint2 library for the computation of 2-el integrals
 For citations please refer to: http://libint.valeyev.net

 Your ORCA version has been built with support for libXC version: 5.1.0
 For citations please refer to: https://tddft.org/programs/libxc/

 This ORCA versions uses:
   CBLAS   interface :  Fast vector & matrix operations
   LAPACKE interface :  Fast linear algebra routines
   SCALAPACK package :  Parallel linear algebra routines
   Shared memory     :  Shared parallel matrices
   BLAS/LAPACK       :  OpenBLAS 0.3.15  USE64BITINT DYNAMIC_ARCH NO_AFFINITY Haswell SINGLE_THREADED
        Core in use  :  Haswell
   Copyright (c) 2011-2014, The OpenBLAS Project




***************************************
The coordinates will be read from file: H2O.xyz
***************************************



Information: The global flag for chemical shieldings has been found
             ==>> will calculate the chemical shieldings for all atoms in the system

================================================================================

----- Orbital basis set information -----
Your calculation utilizes the basis: pcSseg-2
   F. Jensen, J. Chem. Theory Comput. 11, 132 (2015).

----- AuxJ basis set information -----
Your calculation utilizes the auxiliary basis: def2/J
   F. Weigend, Phys. Chem. Chem. Phys. 8, 1057 (2006).

================================================================================
                                        WARNINGS
                       Please study these warnings very carefully!
================================================================================


INFO   : the flag for use of the SHARK integral package has been found!

================================================================================
                                       INPUT FILE
================================================================================
NAME = H2O.inp
|  1> !PBE RI pcSseg-2 def2/J NMR
|  2> ! CPCM(Water)
|  3> 
|  4> *xyzfile 0 1 H2O.xyz
|  5> 
|  6> 
|  7>                          ****END OF INPUT****
================================================================================

                       ****************************
                       * Single Point Calculation *
                       ****************************

---------------------------------
CARTESIAN COORDINATES (ANGSTROEM)
---------------------------------
  O     -5.359393    1.452161    0.012135
  H     -4.402798    1.464997   -0.022964
  H     -5.643088    1.766202   -0.846671

----------------------------
CARTESIAN COORDINATES (A.U.)
----------------------------
  NO LB      ZA    FRAG     MASS         X           Y           Z
   0 O     8.0000    0    15.999  -10.127786    2.744186    0.022933
   1 H     1.0000    0     1.008   -8.320083    2.768443   -0.043396
   2 H     1.0000    0     1.008  -10.663891    3.337639   -1.599977

--------------------------------
INTERNAL COORDINATES (ANGSTROEM)
--------------------------------
 O      0   0   0     0.000000000000     0.00000000     0.00000000
 H      1   0   0     0.957324946627     0.00000000     0.00000000
 H      1   2   0     0.957420454912   104.99884647     0.00000000

---------------------------
INTERNAL COORDINATES (A.U.)
---------------------------
 O      0   0   0     0.000000000000     0.00000000     0.00000000
 H      1   0   0     1.809081970295     0.00000000     0.00000000
 H      1   2   0     1.809262454799   104.99884647     0.00000000

---------------------
BASIS SET INFORMATION
---------------------
There are 2 groups of distinct atoms

 Group   1 Type O   : 11s7p2d1f contracted to 4s5p2d1f pattern {7211/31111/11/1}
 Group   2 Type H   : 6s3p1d contracted to 3s2p1d pattern {411/21/1}

Atom   0O    basis set group =>   1
Atom   1H    basis set group =>   2
Atom   2H    basis set group =>   2
---------------------------------
AUXILIARY/J BASIS SET INFORMATION
---------------------------------
There are 2 groups of distinct atoms

 Group   1 Type O   : 12s5p4d2f1g contracted to 6s4p3d1f1g pattern {711111/2111/211/2/1}
 Group   2 Type H   : 5s2p1d contracted to 3s1p1d pattern {311/2/1}

Atom   0O    basis set group =>   1
Atom   1H    basis set group =>   2
Atom   2H    basis set group =>   2
------------------------------------------------------------------------------
                           ORCA GTO INTEGRAL CALCULATION
                           -- RI-GTO INTEGRALS CHOSEN --
------------------------------------------------------------------------------
------------------------------------------------------------------------------
                   ___                                                        
                  /   \      - P O W E R E D   B Y -                         
                 /     \                                                     
                 |  |  |   _    _      __       _____    __    __             
                 |  |  |  | |  | |    /  \     |  _  \  |  |  /  |          
                  \  \/   | |  | |   /    \    | | | |  |  | /  /          
                 / \  \   | |__| |  /  /\  \   | |_| |  |  |/  /          
                |  |  |   |  __  | /  /__\  \  |    /   |      \           
                |  |  |   | |  | | |   __   |  |    \   |  |\   \          
                \     /   | |  | | |  |  |  |  | |\  \  |  | \   \       
                 \___/    |_|  |_| |__|  |__|  |_| \__\ |__|  \__/        
                                                                              
                      - O R C A' S   B I G   F R I E N D -                    
                                      &                                       
                       - I N T E G R A L  F E E D E R -                       
                                                                              
 v1 FN, 2020, v2 2021                                                         
------------------------------------------------------------------------------


Reading SHARK input file H2O.SHARKINP.tmp ... ok
----------------------
SHARK INTEGRAL PACKAGE
----------------------

Number of atoms                             ...      3
Number of basis functions                   ...     64
Number of shells                            ...     24
Maximum angular momentum                    ...      3
Integral batch strategy                     ... SHARK/LIBINT Hybrid
RI-J (if used) integral strategy            ... SPLIT-RIJ (Revised 2003 algorithm where possible)
Printlevel                                  ...      1
Contraction scheme used                     ... SEGMENTED contraction
Coulomb Range Separation                    ... NOT USED
Exchange Range Separation                   ... NOT USED
Finite Nucleus Model                        ... NOT USED
Auxiliary Coulomb fitting basis             ... AVAILABLE
   # of basis functions in Aux-J            ...     71
   # of shells in Aux-J                     ...     25
   Maximum angular momentum in Aux-J        ...      4
Auxiliary J/K fitting basis                 ... NOT available
Auxiliary Correlation fitting basis         ... NOT available
Auxiliary 'external' fitting basis          ... NOT available
Integral threshold                          ...     1.000000e-10
Primitive cut-off                           ...     1.000000e-11
Primitive pair pre-selection threshold      ...     1.000000e-11

Calculating pre-screening integrals         ... done (  0.1 sec) Dimension = 24
Organizing shell pair data                  ... done (  0.0 sec)
Shell pair information
Total number of shell pairs                 ...       300
Shell pairs after pre-screening             ...       300
Total number of primitive shell pairs       ...       900
Primitive shell pairs kept                  ...       847
          la=0 lb=0:     55 shell pairs
          la=1 lb=0:     90 shell pairs
          la=1 lb=1:     45 shell pairs
          la=2 lb=0:     40 shell pairs
          la=2 lb=1:     36 shell pairs
          la=2 lb=2:     10 shell pairs
          la=3 lb=0:     10 shell pairs
          la=3 lb=1:      9 shell pairs
          la=3 lb=2:      4 shell pairs
          la=3 lb=3:      1 shell pairs

Calculating one electron integrals          ... done (  0.0 sec)
Calculating RI/J V-Matrix + Cholesky decomp.... done (  0.0 sec)
Calculating Nuclear repulsion               ... done (  0.0 sec) ENN=      9.192182479476 Eh

SHARK setup successfully completed in   0.3 seconds

Maximum memory used throughout the entire GTOINT-calculation: 15.3 MB
-------------------------------------------------------------------------------
                                 ORCA SCF
-------------------------------------------------------------------------------

------------
SCF SETTINGS
------------
Hamiltonian:
 Density Functional     Method          .... DFT(GTOs)
 Exchange Functional    Exchange        .... PBE
   PBE kappa parameter   XKappa         ....  0.804000
   PBE mue parameter    XMuePBE         ....  0.219520
 Correlation Functional Correlation     .... PBE
   PBE beta parameter  CBetaPBE         ....  0.066725
 LDA part of GGA corr.  LDAOpt          .... PW91-LDA
 Gradients option       PostSCFGGA      .... off
   Density functional embedding theory  .... OFF
   NL short-range parameter             ....  6.400000
 RI-approximation to the Coulomb term is turned on
   Number of AuxJ basis functions       .... 71


General Settings:
 Integral files         IntName         .... H2O
 Hartree-Fock type      HFTyp           .... RHF
 Total Charge           Charge          ....    0
 Multiplicity           Mult            ....    1
 Number of Electrons    NEL             ....   10
 Basis Dimension        Dim             ....   64
 Nuclear Repulsion      ENuc            ....      9.1921824795 Eh

Convergence Acceleration:
 DIIS                   CNVDIIS         .... on
   Start iteration      DIISMaxIt       ....    12
   Startup error        DIISStart       ....  0.200000
   # of expansion vecs  DIISMaxEq       ....     5
   Bias factor          DIISBfac        ....   1.050
   Max. coefficient     DIISMaxC        ....  10.000
 Trust-Rad. Augm. Hess. CNVTRAH         .... auto
   Auto Start mean grad. ratio tolernc. ....  1.125000
   Auto Start start iteration           ....    20
   Auto Start num. interpolation iter.  ....    10
   Max. Number of Micro iterations      ....    16
   Max. Number of Macro iterations      .... Maxiter - #DIIS iter
   Number of Davidson start vectors     ....     2
   Converg. threshold I  (grad. norm)   ....   5.000e-05
   Converg. threshold II (energy diff.) ....   1.000e-06
   Grad. Scal. Fac. for Micro threshold ....   0.100
   Minimum threshold for Micro iter.    ....   0.010
   NR start threshold (gradient norm)   ....   0.001
   Initial trust radius                 ....   0.400
   Minimum AH scaling param. (alpha)    ....   1.000
   Maximum AH scaling param. (alpha)    .... 1000.000
   Orbital update algorithm             .... Taylor
   White noise on init. David. guess    .... on
   Maximum white noise                  ....   0.010
   Quad. conv. algorithm                .... NR
 SOSCF                  CNVSOSCF        .... on
   Start iteration      SOSCFMaxIt      ....   150
   Startup grad/error   SOSCFStart      ....  0.003300
 Level Shifting         CNVShift        .... on
   Level shift para.    LevelShift      ....    0.2500
   Turn off err/grad.   ShiftErr        ....    0.0010
 Zerner damping         CNVZerner       .... off
 Static damping         CNVDamp         .... on
   Fraction old density DampFac         ....    0.7000
   Max. Damping (<1)    DampMax         ....    0.9800
   Min. Damping (>=0)   DampMin         ....    0.0000
   Turn off err/grad.   DampErr         ....    0.1000
 Fernandez-Rico         CNVRico         .... off

SCF Procedure:
 Maximum # iterations   MaxIter         ....   125
 SCF integral mode      SCFMode         .... Direct
   Integral package                     .... SHARK and LIBINT hybrid scheme
 Reset frequency        DirectResetFreq ....    20
 Integral Threshold     Thresh          ....  1.000e-10 Eh
 Primitive CutOff       TCut            ....  1.000e-11 Eh

Convergence Tolerance:
 Convergence Check Mode ConvCheckMode   .... Total+1el-Energy
 Convergence forced     ConvForced      .... 0
 Energy Change          TolE            ....  1.000e-06 Eh
 1-El. energy change                    ....  1.000e-03 Eh
 Orbital Gradient       TolG            ....  5.000e-05
 Orbital Rotation angle TolX            ....  5.000e-05
 DIIS Error             TolErr          ....  1.000e-06


Diagonalization of the overlap matrix:
Smallest eigenvalue                        ... 4.152e-03
Time for diagonalization                   ...    0.001 sec
Threshold for overlap eigenvalues          ... 1.000e-08
Number of eigenvalues below threshold      ... 0
Time for construction of square roots      ...    0.000 sec
Total time needed                          ...    0.001 sec

Time for model grid setup =    0.042 sec

------------------------------
INITIAL GUESS: MODEL POTENTIAL
------------------------------
Loading Hartree-Fock densities                     ... done
Calculating cut-offs                               ... done
Initializing the effective Hamiltonian             ... done
Setting up the integral package (SHARK)            ... done
Starting the Coulomb interaction                   ... done (   0.0 sec)
Reading the grid                                   ... done
Mapping shells                                     ... done
Starting the XC term evaluation                    ... done (   0.0 sec)
  promolecular density results
     # of electrons  =      9.999112526
     EX              =     -8.731483146
     EC              =     -0.316253077
     EX+EC           =     -9.047736223
Transforming the Hamiltonian                       ... done (   0.0 sec)
Diagonalizing the Hamiltonian                      ... done (   0.0 sec)
Back transforming the eigenvectors                 ... done (   0.0 sec)
Now organizing SCF variables                       ... done
                      ------------------
                      INITIAL GUESS DONE (   0.1 sec)
                      ------------------
-------------------
DFT GRID GENERATION
-------------------

General Integration Accuracy     IntAcc      ... 4.388
Radial Grid Type                 RadialGrid  ... OptM3 with GC (2021)
Angular Grid (max. ang.)         AngularGrid ... 4 (Lebedev-302)
Angular grid pruning method      GridPruning ... 4 (adaptive)
Weight generation scheme         WeightScheme... Becke
Basis function cutoff            BFCut       ... 1.0000e-10
Integration weight cutoff        WCut        ... 1.0000e-14
Angular grids for H and He will be reduced by one unit
Partially contracted basis set               ... off
Rotationally invariant grid construction     ... off

Total number of grid points                  ...    13067
Total number of batches                      ...      206
Average number of points per batch           ...       63
Average number of grid points per atom       ...     4356
Time for grid setup =    0.175 sec


--------------------
CPCM SOLVATION MODEL
--------------------
CPCM parameters:
  Epsilon                                         ...      80.4000
  Refrac                                          ...       1.3300
  Rsolv                                           ...       1.3000
  Surface type                                    ... GAUSSIAN VDW
  Epsilon function type                           ...         CPCM
Radii:
 Radius for O  used is    3.4469 Bohr (=   1.8240 Ang.)
 Radius for H  used is    2.4944 Bohr (=   1.3200 Ang.)
Calculating surface                               ...        done! (  0.0s)
GEPOL surface points                              ...          234
GEPOL Volume                                      ...     191.2742
GEPOL Surface-area                                ...     163.5391
Calculating surface distance matrix               ...        done! (  0.0s)
Performing Cholesky decomposition & store         ...        done! (  0.0s)
Overall time for CPCM initialization              ...                 0.0s
--------------
SCF ITERATIONS
--------------
ITER       Energy         Delta-E        Max-DP      RMS-DP      [F,P]     Damp
               ***  Starting incremental Fock matrix formation  ***
  0    -76.3018628763   0.000000000000 0.05668468  0.00234824  0.3017671 0.7000
  1    -76.3491905899  -0.047327713603 0.03308062  0.00130177  0.0992273 0.7000
                               ***Turning on DIIS***
  2    -76.3609403524  -0.011749762423 0.02216423  0.00112823  0.0128835 0.0000
  3    -76.3886020110  -0.027661658664 0.01704944  0.00060089  0.0563630 0.0000
  4    -76.3915033481  -0.002901337044 0.00560357  0.00020621  0.0161090 0.0000
  5    -76.3917634528  -0.000260104761 0.00148920  0.00005719  0.0033010 0.0000
                      *** Initiating the SOSCF procedure ***
                           *** Shutting down DIIS ***
                      *** Re-Reading the Fockian *** 
                      *** Removing any level shift *** 
ITER      Energy       Delta-E        Grad      Rot      Max-DP    RMS-DP
  6    -76.39177569  -0.0000122325  0.000223  0.000223  0.000457  0.000025
               *** Restarting incremental Fock matrix formation ***
  7    -76.39177642  -0.0000007337  0.000041  0.000073  0.000086  0.000003
  8    -76.39177640   0.0000000218  0.000078  0.000047  0.000052  0.000002
                 **** Energy Check signals convergence ****
              ***Rediagonalizing the Fockian in SOSCF/NRSCF***

               *****************************************************
               *                     SUCCESS                       *
               *           SCF CONVERGED AFTER   9 CYCLES          *
               *****************************************************


----------------
TOTAL SCF ENERGY
----------------

Total Energy       :          -76.39177643 Eh           -2078.72592 eV

Components:
Nuclear Repulsion  :            9.19218248 Eh             250.13200 eV
Electronic Energy  :          -85.58395891 Eh           -2328.85792 eV
One Electron Energy:         -123.06993051 Eh           -3348.90306 eV
Two Electron Energy:           37.48597161 Eh            1020.04515 eV
CPCM Dielectric    :           -0.01121484 Eh              -0.30517 eV

Virial components:
Potential Energy   :         -152.56960622 Eh           -4151.63005 eV
Kinetic Energy     :           76.17782979 Eh            2072.90413 eV
Virial Ratio       :            2.00280852


DFT components:
N(Alpha)           :        4.999992204597 electrons
N(Beta)            :        4.999992204597 electrons
N(Total)           :        9.999984409194 electrons
E(X)               :       -8.923022804003 Eh       
E(C)               :       -0.325135475309 Eh       
E(XC)              :       -9.248158279312 Eh       
DFET-embed. en.    :        0.000000000000 Eh       
CPCM Solvation Model Properties:
Surface-charge          :           -0.01040047
Charge-correction       :            0.00003738 Eh               0.00102 eV
Free-energy (cav+disp)  :  This term is not implemented in the current solvation scheme

---------------
SCF CONVERGENCE
---------------

  Last Energy change         ...   -3.0920e-08  Tolerance :   1.0000e-06
  Last MAX-Density change    ...    1.3893e-06  Tolerance :   1.0000e-05
  Last RMS-Density change    ...    6.6480e-08  Tolerance :   1.0000e-06
  Last Orbital Gradient      ...    1.4097e-06  Tolerance :   5.0000e-05
  Last Orbital Rotation      ...    9.4744e-07  Tolerance :   5.0000e-05

             **** THE GBW FILE WAS UPDATED (H2O.gbw) ****
             **** DENSITY H2O.scfp WAS UPDATED ****
             **** ENERGY FILE WAS UPDATED (H2O.en.tmp) ****
             **** THE GBW FILE WAS UPDATED (H2O.gbw) ****
             **** DENSITY H2O.scfp WAS UPDATED ****
----------------
ORBITAL ENERGIES
----------------

  NO   OCC          E(Eh)            E(eV) 
   0   2.0000     -18.744491      -510.0635 
   1   2.0000      -0.923264       -25.1233 
   2   2.0000      -0.476689       -12.9714 
   3   2.0000      -0.338850        -9.2206 
   4   2.0000      -0.263387        -7.1671 
   5   0.0000       0.001569         0.0427 
   6   0.0000       0.073586         2.0024 
   7   0.0000       0.252651         6.8750 
   8   0.0000       0.274864         7.4794 
   9   0.0000       0.300778         8.1846 
  10   0.0000       0.301407         8.2017 
  11   0.0000       0.423672        11.5287 
  12   0.0000       0.511811        13.9271 
  13   0.0000       0.680500        18.5174 
  14   0.0000       0.741663        20.1817 
  15   0.0000       0.839141        22.8342 
  16   0.0000       1.010190        27.4887 
  17   0.0000       1.132762        30.8240 
  18   0.0000       1.146818        31.2065 
  19   0.0000       1.379824        37.5469 
  20   0.0000       1.441806        39.2335 
  21   0.0000       1.689839        45.9829 
  22   0.0000       1.740048        47.3491 
  23   0.0000       1.765273        48.0355 
  24   0.0000       1.907209        51.8978 
  25   0.0000       1.956208        53.2311 
  26   0.0000       1.978918        53.8491 
  27   0.0000       2.451170        66.6997 
  28   0.0000       3.224064        87.7312 
  29   0.0000       3.290583        89.5413 
  30   0.0000       3.420697        93.0819 
  31   0.0000       3.512099        95.5691 
  32   0.0000       3.638656        99.0129 
  33   0.0000       3.720236       101.2328 
  34   0.0000       3.768000       102.5325 
  35   0.0000       3.811456       103.7150 
  36   0.0000       3.995240       108.7160 
  37   0.0000       4.042388       109.9990 
  38   0.0000       4.244062       115.4868 
  39   0.0000       4.320867       117.5768 
  40   0.0000       4.442470       120.8857 
  41   0.0000       4.471879       121.6860 
  42   0.0000       4.582305       124.6909 
  43   0.0000       4.730815       128.7320 
  44   0.0000       4.858396       132.2037 
  45   0.0000       4.887101       132.9848 
  46   0.0000       4.958140       134.9178 
  47   0.0000       5.823256       158.4588 
  48   0.0000       5.844436       159.0352 
  49   0.0000       5.941405       161.6739 
  50   0.0000       6.071835       165.2230 
  51   0.0000       6.092998       165.7989 
  52   0.0000       6.220641       169.2723 
  53   0.0000       6.222456       169.3216 
  54   0.0000       6.656933       181.1444 
  55   0.0000       6.700019       182.3168 
  56   0.0000       7.274903       197.9602 
  57   0.0000       7.536066       205.0668 
  58   0.0000       7.878642       214.3888 
  59   0.0000       8.575184       233.3426 
  60   0.0000       9.175541       249.6792 
  61   0.0000      33.067758       899.8194 
  62   0.0000      33.396130       908.7549 
  63   0.0000      33.676291       916.3785 

                    ********************************
                    * MULLIKEN POPULATION ANALYSIS *
                    ********************************

-----------------------
MULLIKEN ATOMIC CHARGES
-----------------------
   0 O :   -0.492031
   1 H :    0.246002
   2 H :    0.246029
Sum of atomic charges:    0.0000000

--------------------------------
MULLIKEN REDUCED ORBITAL CHARGES
--------------------------------
  0 O s       :     3.718412  s :     3.718412
      pz      :     1.521271  p :     4.762966
      px      :     1.360526
      py      :     1.881169
      dz2     :     0.004089  d :     0.010329
      dxz     :     0.000876
      dyz     :     0.002070
      dx2y2   :     0.002685
      dxy     :     0.000608
      f0      :    -0.000020  f :     0.000324
      f+1     :    -0.000061
      f-1     :     0.000091
      f+2     :     0.000053
      f-2     :     0.000031
      f+3     :     0.000148
      f-3     :     0.000082
  1 H s       :     0.660407  s :     0.660407
      pz      :     0.021576  p :     0.086380
      px      :     0.037178
      py      :     0.027626
      dz2     :     0.000765  d :     0.007211
      dxz     :     0.001876
      dyz     :     0.000001
      dx2y2   :     0.002452
      dxy     :     0.002117
  2 H s       :     0.660384  s :     0.660384
      pz      :     0.036102  p :     0.086376
      px      :     0.020701
      py      :     0.029572
      dz2     :     0.002613  d :     0.007211
      dxz     :     0.001644
      dyz     :     0.002029
      dx2y2   :     0.000496
      dxy     :     0.000429


                     *******************************
                     * LOEWDIN POPULATION ANALYSIS *
                     *******************************

----------------------
LOEWDIN ATOMIC CHARGES
----------------------
   0 O :    0.068022
   1 H :   -0.034067
   2 H :   -0.033955

-------------------------------
LOEWDIN REDUCED ORBITAL CHARGES
-------------------------------
  0 O s       :     3.278160  s :     3.278160
      pz      :     1.508619  p :     4.611354
      px      :     1.383347
      py      :     1.719388
      dz2     :     0.013967  d :     0.035795
      dxz     :     0.004686
      dyz     :     0.004151
      dx2y2   :     0.012252
      dxy     :     0.000740
      f0      :     0.001124  f :     0.006669
      f+1     :     0.001941
      f-1     :     0.001031
      f+2     :     0.000417
      f-2     :     0.000353
      f+3     :     0.001500
      f-3     :     0.000303
  1 H s       :     0.661068  s :     0.661068
      pz      :     0.073193  p :     0.305335
      px      :     0.136717
      py      :     0.095425
      dz2     :     0.005707  d :     0.067664
      dxz     :     0.020893
      dyz     :     0.000010
      dx2y2   :     0.016868
      dxy     :     0.024186
  2 H s       :     0.661050  s :     0.661050
      pz      :     0.137121  p :     0.305266
      px      :     0.064192
      py      :     0.103952
      dz2     :     0.023723  d :     0.067639
      dxz     :     0.015029
      dyz     :     0.019933
      dx2y2   :     0.004897
      dxy     :     0.004057


                      *****************************
                      * MAYER POPULATION ANALYSIS *
                      *****************************

  NA   - Mulliken gross atomic population
  ZA   - Total nuclear charge
  QA   - Mulliken gross atomic charge
  VA   - Mayer's total valence
  BVA  - Mayer's bonded valence
  FA   - Mayer's free valence

  ATOM       NA         ZA         QA         VA         BVA        FA
  0 O      8.4920     8.0000    -0.4920     1.9896     1.9896    -0.0000
  1 H      0.7540     1.0000     0.2460     1.0091     1.0091    -0.0000
  2 H      0.7540     1.0000     0.2460     1.0091     1.0091     0.0000

  Mayer bond orders larger than 0.100000
B(  0-O ,  1-H ) :   0.9948 B(  0-O ,  2-H ) :   0.9948 

-------
TIMINGS
-------

Total SCF time: 0 days 0 hours 0 min 3 sec 

Total time                  ....       3.794 sec
Sum of individual times     ....       3.663 sec  ( 96.6%)

Fock matrix formation       ....       3.373 sec  ( 88.9%)
  Split-RI-J                ....       0.210 sec  (  6.2% of F)
  XC integration            ....       1.535 sec  ( 45.5% of F)
    Basis function eval.    ....       0.698 sec  ( 45.4% of XC)
    Density eval.           ....       0.181 sec  ( 11.8% of XC)
    XC-Functional eval.     ....       0.295 sec  ( 19.2% of XC)
    XC-Potential eval.      ....       0.312 sec  ( 20.3% of XC)
Diagonalization             ....       0.016 sec  (  0.4%)
Density matrix formation    ....       0.000 sec  (  0.0%)
Population analysis         ....       0.001 sec  (  0.0%)
Initial guess               ....       0.052 sec  (  1.4%)
Orbital Transformation      ....       0.000 sec  (  0.0%)
Orbital Orthonormalization  ....       0.000 sec  (  0.0%)
DIIS solution               ....       0.002 sec  (  0.0%)
SOSCF solution              ....       0.001 sec  (  0.0%)
Grid generation             ....       0.217 sec  (  5.7%)

Maximum memory used throughout the entire SCF-calculation: 11.6 MB

-------------------------   --------------------
FINAL SINGLE POINT ENERGY       -76.391776428235
-------------------------   --------------------


                            ***************************************
                            *     ORCA property calculations      *
                            ***************************************

                                    ---------------------
                                    Active property flags
                                    ---------------------
   (+) Dipole Moment
   (+) Chemical Shifts
   (+) Nuclear properties (Hyperfine,Quadrupole)


------------------------------------------------------------------------------
                       ORCA ELECTRIC PROPERTIES CALCULATION
------------------------------------------------------------------------------

Dipole Moment Calculation                       ... on
Quadrupole Moment Calculation                   ... off
Polarizability Calculation                      ... off
GBWName                                         ... H2O.gbw
Electron density                                ... H2O.scfp
The origin for moment calculation is the CENTER OF MASS  = (-10.056636,  2.778749 -0.071586)

-------------
DIPOLE MOMENT
-------------
                                X             Y             Z
Electronic contribution:     -0.03759      -0.01830       0.05004
Nuclear contribution   :      0.56010       0.27208      -0.74405
                        -----------------------------------------
Total Dipole Moment    :      0.52251       0.25378      -0.69401
                        -----------------------------------------
Magnitude (a.u.)       :      0.90503
Magnitude (Debye)      :      2.30039



--------------------
Rotational spectrum 
--------------------
 
Rotational constants in cm-1:    27.719161    14.494982     9.517870 
Rotational constants in MHz : 830999.538536 434548.636402 285338.577758 

 Dipole components along the rotational axes: 
x,y,z [a.u.] :     0.000129     0.905027    -0.000001 
x,y,z [Debye]:     0.000329     2.300395    -0.000002 

 
------------------------------------------------------------------------------
                                ORCA EPR/NMR CALCULATION
------------------------------------------------------------------------------

GBWName                      ... H2O.gbw
Electron density             ... H2O.scfp
Spin density                 ... H2O.scfr
Treatment of gauge           ... GIAO (approximations 1/2el = 0,0)
Details of the CP(SCF) procedure:
       Solver   = POPLE   
       MaxIter  =    64   
       Tolerance=    1.000e-03
       Op-0     =   0-  4 =>   5- 63
Multiplicity                 ... 1
g-tensor                     ... 0
NMR chemical shifts          ... 1
NMR spin-spin couplings      ... 0
NMR spectrum                 ... 0
Number of nuclei for epr/nmr ... 3
   Nucleus:   0O 
       Hyperfine : Isotope=   17 I=   2.500 P= -72.357
       Quadrupole: Isotope=   17 I=   2.500 Q=  -0.026
       Spin-Orbit: Zeff=   5.600
       Nuclear Spin-Spin: Gn=   0.000
       EPRNMR Input: 
       rho(0)=N f(grad)=N a(iso)=N a(dip)=N a(orb)=N sigma(nmr)=Y spin-spin(nmr)=all-N,DSO-N,PSO-N,FC-N,SD-N
   Nucleus:   1H 
       Hyperfine : Isotope=    1 I=   0.500 P= 533.552
       Quadrupole: Isotope=    2 I=   1.000 Q=   0.003
       Spin-Orbit: Zeff=   1.000
       Nuclear Spin-Spin: Gn=   0.000
       EPRNMR Input: 
       rho(0)=N f(grad)=N a(iso)=N a(dip)=N a(orb)=N sigma(nmr)=Y spin-spin(nmr)=all-N,DSO-N,PSO-N,FC-N,SD-N
   Nucleus:   2H 
       Hyperfine : Isotope=    1 I=   0.500 P= 533.552
       Quadrupole: Isotope=    2 I=   1.000 Q=   0.003
       Spin-Orbit: Zeff=   1.000
       Nuclear Spin-Spin: Gn=   0.000
       EPRNMR Input: 
       rho(0)=N f(grad)=N a(iso)=N a(dip)=N a(orb)=N sigma(nmr)=Y spin-spin(nmr)=all-N,DSO-N,PSO-N,FC-N,SD-N
Forming RHS of the CP-SCF equations         ... 
Calculating right hand sides for GIAO treatment        ... 
  Entering RightHandSide GIAO. ScalHFX=    0.0000 NeedHFX=0
     -> 1-electron GIAO integrals will be done analytically
     -> RI used in SCF. Same chosen for GIAO calculation.
     Making grid for GIAO integrations   ...

GRID GIAO
---------

General Integration Accuracy     IntAcc      ... 4.388
Radial Grid Type                 RadialGrid  ... OptM3 with GC (2021)
Angular Grid (max. ang.)         AngularGrid ... 4 (Lebedev-302)
Angular grid pruning method      GridPruning ... 4 (adaptive)
Weight generation scheme         WeightScheme... Becke
Basis function cutoff            BFCut       ... 1.0000e-10
Integration weight cutoff        WCut        ... 1.0000e-14
Angular grids for H and He will be reduced by one unit
Partially contracted basis set               ... off
Rotationally invariant grid construction     ... off

Total number of grid points                  ...    13067
Total number of batches                      ...      206
Average number of points per batch           ...       63
Average number of grid points per atom       ...     4356

  One-electron GIAO integrals (SHARK)     ... done
  Calculating G(B)[P]                     ... (RI-J: SHARK-ok) (copy J to G-ok) => dG/dB done
  DFT XC-terms                            ... done
  Forming the GIAO-CPCM matrix            ... done (epsilon= 80.40 f(epsilon)= 0.987562)
  Extracting occupied and virtual blocks  ... 
  Operator  0  NO=   5 NV=  59 
  Transforming and RHS contribution       ... done
  Adding eps_i * S(B)_ai terms            ... done

  GIAO profiling information: 
    Total GIAO time               ...       1.4 sec
       GIAO 1-electron integrals  ...       0.0 sec (  0.3%)
       GIAO RI-J                  ...       0.1 sec (  9.7%)
       GIAO XC-terms              ...       0.8 sec ( 55.8%)
       GIAO Solvent terms         ...       0.3 sec ( 20.6%)

  GIAO right hand side done


Forming final perturbed densities           ... done
Transforming perturbed density to AO basis  ... done

Magnetic field perturbation calculated in  1.357 sec

---------------
CHEMICAL SHIFTS
---------------

Note: using conversion factor for au to ppm alpha^2/2 =   26.625677252 
GIAO: Analytic para- and diamagnetic shielding integrals (SHARK)       ...done
 --------------
 Nucleus   0O :
 --------------

Diamagnetic contribution to the shielding tensor (ppm) : 
           393.954         -0.860         5.401
            -1.852        376.354        -5.046
             5.040         -6.533       387.766

Paramagnetic contribution to the shielding tensor (ppm): 
           -33.450         -5.385        11.859
            -4.398        -61.613        -6.977
            12.224         -5.541       -44.665

Total shielding tensor (ppm): 
           360.503         -6.245        17.260
            -6.251        314.741       -12.024
            17.264        -12.073       343.101


 Diagonalized sT*s matrix:
 
 sDSO           373.959          386.366          397.749  iso=     386.024
 sPSO           -63.646          -51.820          -24.263  iso=     -46.576
        ---------------  ---------------  ---------------
 Total          310.313          334.546          373.486  iso=     339.448

 --------------
 Nucleus   1H :
 --------------

Diamagnetic contribution to the shielding tensor (ppm) : 
            43.490          1.887         1.922
            -0.115         31.480         2.396
             0.311          1.926        25.637

Paramagnetic contribution to the shielding tensor (ppm): 
             0.669         -2.382        -0.561
             0.075         -8.561        -2.722
            -0.195         -2.250        -1.942

Total shielding tensor (ppm): 
            44.159         -0.495         1.361
            -0.040         22.920        -0.326
             0.116         -0.325        23.694


 Diagonalized sT*s matrix:
 
 sDSO            32.185           24.903           43.518  iso=      33.536
 sPSO            -9.384           -1.118            0.669  iso=      -3.278
        ---------------  ---------------  ---------------
 Total           22.801           23.785           44.187  iso=      30.258

 --------------
 Nucleus   2H :
 --------------

Diamagnetic contribution to the shielding tensor (ppm) : 
            27.458         -2.407         5.506
            -2.343         23.704        -6.308
             6.409         -8.757        37.751

Paramagnetic contribution to the shielding tensor (ppm): 
            -0.893          0.226         0.450
            -0.292          1.273         0.304
             0.789          2.750         1.451

Total shielding tensor (ppm): 
            26.565         -2.181         5.956
            -2.635         24.977        -6.004
             7.198         -6.007        39.202


 Diagonalized sT*s matrix:
 
 sDSO            20.503           24.898           43.512  iso=      29.638
 sPSO             2.278           -1.115            0.669  iso=       0.610
        ---------------  ---------------  ---------------
 Total           22.781           23.782           44.181  iso=      30.248



--------------------------------
CHEMICAL SHIELDING SUMMARY (ppm)
--------------------------------


  Nucleus  Element    Isotropic     Anisotropy
  -------  -------  ------------   ------------
      0       O          339.448         51.057 
      1       H           30.258         20.894 
      2       H           30.248         20.899 



Maximum memory used throughout the entire EPRNMR-calculation: 11.6 MB

Timings for individual modules:

Sum of individual times         ...        5.678 sec (=   0.095 min)
GTO integral calculation        ...        0.326 sec (=   0.005 min)   5.7 %
SCF iterations                  ...        3.820 sec (=   0.064 min)  67.3 %
EPR/NMR calculation             ...        1.532 sec (=   0.026 min)  27.0 %
                             ****ORCA TERMINATED NORMALLY****
TOTAL RUN TIME: 0 days 0 hours 0 minutes 5 seconds 877 msec
