
                                 *****************
                                 * O   R   C   A *
                                 *****************

                                            #,                                       
                                            ###                                      
                                            ####                                     
                                            #####                                    
                                            ######                                   
                                           ########,                                 
                                     ,,################,,,,,                         
                               ,,#################################,,                 
                          ,,##########################################,,             
                       ,#########################################, ''#####,          
                    ,#############################################,,   '####,        
                  ,##################################################,,,,####,       
                ,###########''''           ''''###############################       
              ,#####''   ,,,,##########,,,,          '''####'''          '####       
            ,##' ,,,,###########################,,,                        '##       
           ' ,,###''''                  '''############,,,                           
         ,,##''                                '''############,,,,        ,,,,,,###''
      ,#''                                            '''#######################'''  
     '                                                          ''''####''''         
             ,#######,   #######,   ,#######,      ##                                
            ,#'     '#,  ##    ##  ,#'     '#,    #''#        ######   ,####,        
            ##       ##  ##   ,#'  ##            #'  '#       #        #'  '#        
            ##       ##  #######   ##           ,######,      #####,   #    #        
            '#,     ,#'  ##    ##  '#,     ,#' ,#      #,         ##   #,  ,#        
             '#######'   ##     ##  '#######'  #'      '#     #####' # '####'        



                  #######################################################
                  #                        -***-                        #
                  #          Department of theory and spectroscopy      #
                  #    Directorship and core code : Frank Neese         #
                  #        Max Planck Institute fuer Kohlenforschung    #
                  #                Kaiser Wilhelm Platz 1               #
                  #                 D-45470 Muelheim/Ruhr               #
                  #                      Germany                        #
                  #                                                     #
                  #                  All rights reserved                #
                  #                        -***-                        #
                  #######################################################


                         Program Version 5.0.2 -  RELEASE  -


 With contributions from (in alphabetic order):
   Daniel Aravena         : Magnetic Suceptibility
   Michael Atanasov       : Ab Initio Ligand Field Theory (pilot matlab implementation)
   Alexander A. Auer      : GIAO ZORA, VPT2 properties, NMR spectrum
   Ute Becker             : Parallelization
   Giovanni Bistoni       : ED, misc. LED, open-shell LED, HFLD
   Martin Brehm           : Molecular dynamics
   Dmytro Bykov           : SCF Hessian
   Vijay G. Chilkuri      : MRCI spin determinant printing, contributions to CSF-ICE
   Dipayan Datta          : RHF DLPNO-CCSD density
   Achintya Kumar Dutta   : EOM-CC, STEOM-CC
   Dmitry Ganyushin       : Spin-Orbit,Spin-Spin,Magnetic field MRCI
   Miquel Garcia          : C-PCM and meta-GGA Hessian, CC/C-PCM, Gaussian charge scheme
   Yang Guo               : DLPNO-NEVPT2, F12-NEVPT2, CIM, IAO-localization
   Andreas Hansen         : Spin unrestricted coupled pair/coupled cluster methods
   Benjamin Helmich-Paris : MC-RPA, TRAH-SCF, COSX integrals
   Lee Huntington         : MR-EOM, pCC
   Robert Izsak           : Overlap fitted RIJCOSX, COSX-SCS-MP3, EOM
   Marcus Kettner         : VPT2
   Christian Kollmar      : KDIIS, OOCD, Brueckner-CCSD(T), CCSD density, CASPT2, CASPT2-K
   Simone Kossmann        : Meta GGA functionals, TD-DFT gradient, OOMP2, MP2 Hessian
   Martin Krupicka        : Initial AUTO-CI
   Lucas Lang             : DCDCAS
   Marvin Lechner         : AUTO-CI (C++ implementation), FIC-MRCC
   Dagmar Lenk            : GEPOL surface, SMD
   Dimitrios Liakos       : Extrapolation schemes; Compound Job, initial MDCI parallelization
   Dimitrios Manganas     : Further ROCIS development; embedding schemes
   Dimitrios Pantazis     : SARC Basis sets
   Anastasios Papadopoulos: AUTO-CI, single reference methods and gradients
   Taras Petrenko         : DFT Hessian,TD-DFT gradient, ASA, ECA, R-Raman, ABS, FL, XAS/XES, NRVS
   Peter Pinski           : DLPNO-MP2, DLPNO-MP2 Gradient
   Christoph Reimann      : Effective Core Potentials
   Marius Retegan         : Local ZFS, SOC
   Christoph Riplinger    : Optimizer, TS searches, QM/MM, DLPNO-CCSD(T), (RO)-DLPNO pert. Triples
   Tobias Risthaus        : Range-separated hybrids, TD-DFT gradient, RPA, STAB
   Michael Roemelt        : Original ROCIS implementation
   Masaaki Saitow         : Open-shell DLPNO-CCSD energy and density
   Barbara Sandhoefer     : DKH picture change effects
   Avijit Sen             : IP-ROCIS
   Kantharuban Sivalingam : CASSCF convergence, NEVPT2, FIC-MRCI
   Bernardo de Souza      : ESD, SOC TD-DFT
   Georgi Stoychev        : AutoAux, RI-MP2 NMR, DLPNO-MP2 response
   Willem Van den Heuvel  : Paramagnetic NMR
   Boris Wezisla          : Elementary symmetry handling
   Frank Wennmohs         : Technical directorship


 We gratefully acknowledge several colleagues who have allowed us to
 interface, adapt or use parts of their codes:
   Stefan Grimme, W. Hujo, H. Kruse, P. Pracht,  : VdW corrections, initial TS optimization,
                  C. Bannwarth, S. Ehlert          DFT functionals, gCP, sTDA/sTD-DF
   Ed Valeev, F. Pavosevic, A. Kumar             : LibInt (2-el integral package), F12 methods
   Garnet Chan, S. Sharma, J. Yang, R. Olivares  : DMRG
   Ulf Ekstrom                                   : XCFun DFT Library
   Mihaly Kallay                                 : mrcc  (arbitrary order and MRCC methods)
   Jiri Pittner, Ondrej Demel                    : Mk-CCSD
   Frank Weinhold                                : gennbo (NPA and NBO analysis)
   Christopher J. Cramer and Donald G. Truhlar   : smd solvation model
   Lars Goerigk                                  : TD-DFT with DH, B97 family of functionals
   V. Asgeirsson, H. Jonsson                     : NEB implementation
   FAccTs GmbH                                   : IRC, NEB, NEB-TS, DLPNO-Multilevel, CI-OPT
                                                   MM, QMMM, 2- and 3-layer-ONIOM, Crystal-QMMM,
                                                   LR-CPCM, SF, NACMEs, symmetry and pop. for TD-DFT,
                                                   nearIR, NL-DFT gradient (VV10), updates on ESD,
                                                   ML-optimized integration grids
   S Lehtola, MJT Oliveira, MAL Marques          : LibXC Library
   Liviu Ungur et al                             : ANISO software


 Your calculation uses the libint2 library for the computation of 2-el integrals
 For citations please refer to: http://libint.valeyev.net

 Your ORCA version has been built with support for libXC version: 5.1.0
 For citations please refer to: https://tddft.org/programs/libxc/

 This ORCA versions uses:
   CBLAS   interface :  Fast vector & matrix operations
   LAPACKE interface :  Fast linear algebra routines
   SCALAPACK package :  Parallel linear algebra routines
   Shared memory     :  Shared parallel matrices
   BLAS/LAPACK       :  OpenBLAS 0.3.15  USE64BITINT DYNAMIC_ARCH NO_AFFINITY Haswell SINGLE_THREADED
        Core in use  :  Haswell
   Copyright (c) 2011-2014, The OpenBLAS Project




***************************************
The coordinates will be read from file: H2O.xyz
***************************************



Information: The global flag for chemical shieldings has been found
             ==>> will calculate the chemical shieldings for all atoms in the system

================================================================================

----- Orbital basis set information -----
Your calculation utilizes the basis: pcSseg-2
   F. Jensen, J. Chem. Theory Comput. 11, 132 (2015).

----- AuxJ basis set information -----
Your calculation utilizes the auxiliary basis: def2/J
   F. Weigend, Phys. Chem. Chem. Phys. 8, 1057 (2006).

================================================================================
                                        WARNINGS
                       Please study these warnings very carefully!
================================================================================


INFO   : the flag for use of the SHARK integral package has been found!

================================================================================
                                       INPUT FILE
================================================================================
NAME = H2O.inp
|  1> !PBE RI pcSseg-2 def2/J NMR
|  2> 
|  3> *xyzfile 0 1 H2O.xyz
|  4> 
|  5> 
|  6>                          ****END OF INPUT****
================================================================================

                       ****************************
                       * Single Point Calculation *
                       ****************************

---------------------------------
CARTESIAN COORDINATES (ANGSTROEM)
---------------------------------
  O     -5.359393    1.452161    0.012135
  H     -4.402798    1.464997   -0.022964
  H     -5.643088    1.766202   -0.846671

----------------------------
CARTESIAN COORDINATES (A.U.)
----------------------------
  NO LB      ZA    FRAG     MASS         X           Y           Z
   0 O     8.0000    0    15.999  -10.127786    2.744186    0.022933
   1 H     1.0000    0     1.008   -8.320083    2.768443   -0.043396
   2 H     1.0000    0     1.008  -10.663891    3.337639   -1.599977

--------------------------------
INTERNAL COORDINATES (ANGSTROEM)
--------------------------------
 O      0   0   0     0.000000000000     0.00000000     0.00000000
 H      1   0   0     0.957324946627     0.00000000     0.00000000
 H      1   2   0     0.957420454912   104.99884647     0.00000000

---------------------------
INTERNAL COORDINATES (A.U.)
---------------------------
 O      0   0   0     0.000000000000     0.00000000     0.00000000
 H      1   0   0     1.809081970295     0.00000000     0.00000000
 H      1   2   0     1.809262454799   104.99884647     0.00000000

---------------------
BASIS SET INFORMATION
---------------------
There are 2 groups of distinct atoms

 Group   1 Type O   : 11s7p2d1f contracted to 4s5p2d1f pattern {7211/31111/11/1}
 Group   2 Type H   : 6s3p1d contracted to 3s2p1d pattern {411/21/1}

Atom   0O    basis set group =>   1
Atom   1H    basis set group =>   2
Atom   2H    basis set group =>   2
---------------------------------
AUXILIARY/J BASIS SET INFORMATION
---------------------------------
There are 2 groups of distinct atoms

 Group   1 Type O   : 12s5p4d2f1g contracted to 6s4p3d1f1g pattern {711111/2111/211/2/1}
 Group   2 Type H   : 5s2p1d contracted to 3s1p1d pattern {311/2/1}

Atom   0O    basis set group =>   1
Atom   1H    basis set group =>   2
Atom   2H    basis set group =>   2
------------------------------------------------------------------------------
                           ORCA GTO INTEGRAL CALCULATION
                           -- RI-GTO INTEGRALS CHOSEN --
------------------------------------------------------------------------------
------------------------------------------------------------------------------
                   ___                                                        
                  /   \      - P O W E R E D   B Y -                         
                 /     \                                                     
                 |  |  |   _    _      __       _____    __    __             
                 |  |  |  | |  | |    /  \     |  _  \  |  |  /  |          
                  \  \/   | |  | |   /    \    | | | |  |  | /  /          
                 / \  \   | |__| |  /  /\  \   | |_| |  |  |/  /          
                |  |  |   |  __  | /  /__\  \  |    /   |      \           
                |  |  |   | |  | | |   __   |  |    \   |  |\   \          
                \     /   | |  | | |  |  |  |  | |\  \  |  | \   \       
                 \___/    |_|  |_| |__|  |__|  |_| \__\ |__|  \__/        
                                                                              
                      - O R C A' S   B I G   F R I E N D -                    
                                      &                                       
                       - I N T E G R A L  F E E D E R -                       
                                                                              
 v1 FN, 2020, v2 2021                                                         
------------------------------------------------------------------------------


Reading SHARK input file H2O.SHARKINP.tmp ... ok
----------------------
SHARK INTEGRAL PACKAGE
----------------------

Number of atoms                             ...      3
Number of basis functions                   ...     64
Number of shells                            ...     24
Maximum angular momentum                    ...      3
Integral batch strategy                     ... SHARK/LIBINT Hybrid
RI-J (if used) integral strategy            ... SPLIT-RIJ (Revised 2003 algorithm where possible)
Printlevel                                  ...      1
Contraction scheme used                     ... SEGMENTED contraction
Coulomb Range Separation                    ... NOT USED
Exchange Range Separation                   ... NOT USED
Finite Nucleus Model                        ... NOT USED
Auxiliary Coulomb fitting basis             ... AVAILABLE
   # of basis functions in Aux-J            ...     71
   # of shells in Aux-J                     ...     25
   Maximum angular momentum in Aux-J        ...      4
Auxiliary J/K fitting basis                 ... NOT available
Auxiliary Correlation fitting basis         ... NOT available
Auxiliary 'external' fitting basis          ... NOT available
Integral threshold                          ...     1.000000e-10
Primitive cut-off                           ...     1.000000e-11
Primitive pair pre-selection threshold      ...     1.000000e-11

Calculating pre-screening integrals         ... done (  0.1 sec) Dimension = 24
Organizing shell pair data                  ... done (  0.0 sec)
Shell pair information
Total number of shell pairs                 ...       300
Shell pairs after pre-screening             ...       300
Total number of primitive shell pairs       ...       900
Primitive shell pairs kept                  ...       847
          la=0 lb=0:     55 shell pairs
          la=1 lb=0:     90 shell pairs
          la=1 lb=1:     45 shell pairs
          la=2 lb=0:     40 shell pairs
          la=2 lb=1:     36 shell pairs
          la=2 lb=2:     10 shell pairs
          la=3 lb=0:     10 shell pairs
          la=3 lb=1:      9 shell pairs
          la=3 lb=2:      4 shell pairs
          la=3 lb=3:      1 shell pairs

Calculating one electron integrals          ... done (  0.0 sec)
Calculating RI/J V-Matrix + Cholesky decomp.... done (  0.0 sec)
Calculating Nuclear repulsion               ... done (  0.0 sec) ENN=      9.192182479476 Eh

SHARK setup successfully completed in   0.3 seconds

Maximum memory used throughout the entire GTOINT-calculation: 15.3 MB
-------------------------------------------------------------------------------
                                 ORCA SCF
-------------------------------------------------------------------------------

------------
SCF SETTINGS
------------
Hamiltonian:
 Density Functional     Method          .... DFT(GTOs)
 Exchange Functional    Exchange        .... PBE
   PBE kappa parameter   XKappa         ....  0.804000
   PBE mue parameter    XMuePBE         ....  0.219520
 Correlation Functional Correlation     .... PBE
   PBE beta parameter  CBetaPBE         ....  0.066725
 LDA part of GGA corr.  LDAOpt          .... PW91-LDA
 Gradients option       PostSCFGGA      .... off
   Density functional embedding theory  .... OFF
   NL short-range parameter             ....  6.400000
 RI-approximation to the Coulomb term is turned on
   Number of AuxJ basis functions       .... 71


General Settings:
 Integral files         IntName         .... H2O
 Hartree-Fock type      HFTyp           .... RHF
 Total Charge           Charge          ....    0
 Multiplicity           Mult            ....    1
 Number of Electrons    NEL             ....   10
 Basis Dimension        Dim             ....   64
 Nuclear Repulsion      ENuc            ....      9.1921824795 Eh

Convergence Acceleration:
 DIIS                   CNVDIIS         .... on
   Start iteration      DIISMaxIt       ....    12
   Startup error        DIISStart       ....  0.200000
   # of expansion vecs  DIISMaxEq       ....     5
   Bias factor          DIISBfac        ....   1.050
   Max. coefficient     DIISMaxC        ....  10.000
 Trust-Rad. Augm. Hess. CNVTRAH         .... auto
   Auto Start mean grad. ratio tolernc. ....  1.125000
   Auto Start start iteration           ....    20
   Auto Start num. interpolation iter.  ....    10
   Max. Number of Micro iterations      ....    16
   Max. Number of Macro iterations      .... Maxiter - #DIIS iter
   Number of Davidson start vectors     ....     2
   Converg. threshold I  (grad. norm)   ....   5.000e-05
   Converg. threshold II (energy diff.) ....   1.000e-06
   Grad. Scal. Fac. for Micro threshold ....   0.100
   Minimum threshold for Micro iter.    ....   0.010
   NR start threshold (gradient norm)   ....   0.001
   Initial trust radius                 ....   0.400
   Minimum AH scaling param. (alpha)    ....   1.000
   Maximum AH scaling param. (alpha)    .... 1000.000
   Orbital update algorithm             .... Taylor
   White noise on init. David. guess    .... on
   Maximum white noise                  ....   0.010
   Quad. conv. algorithm                .... NR
 SOSCF                  CNVSOSCF        .... on
   Start iteration      SOSCFMaxIt      ....   150
   Startup grad/error   SOSCFStart      ....  0.003300
 Level Shifting         CNVShift        .... on
   Level shift para.    LevelShift      ....    0.2500
   Turn off err/grad.   ShiftErr        ....    0.0010
 Zerner damping         CNVZerner       .... off
 Static damping         CNVDamp         .... on
   Fraction old density DampFac         ....    0.7000
   Max. Damping (<1)    DampMax         ....    0.9800
   Min. Damping (>=0)   DampMin         ....    0.0000
   Turn off err/grad.   DampErr         ....    0.1000
 Fernandez-Rico         CNVRico         .... off

SCF Procedure:
 Maximum # iterations   MaxIter         ....   125
 SCF integral mode      SCFMode         .... Direct
   Integral package                     .... SHARK and LIBINT hybrid scheme
 Reset frequency        DirectResetFreq ....    20
 Integral Threshold     Thresh          ....  1.000e-10 Eh
 Primitive CutOff       TCut            ....  1.000e-11 Eh

Convergence Tolerance:
 Convergence Check Mode ConvCheckMode   .... Total+1el-Energy
 Convergence forced     ConvForced      .... 0
 Energy Change          TolE            ....  1.000e-06 Eh
 1-El. energy change                    ....  1.000e-03 Eh
 Orbital Gradient       TolG            ....  5.000e-05
 Orbital Rotation angle TolX            ....  5.000e-05
 DIIS Error             TolErr          ....  1.000e-06


Diagonalization of the overlap matrix:
Smallest eigenvalue                        ... 4.152e-03
Time for diagonalization                   ...    0.001 sec
Threshold for overlap eigenvalues          ... 1.000e-08
Number of eigenvalues below threshold      ... 0
Time for construction of square roots      ...    0.000 sec
Total time needed                          ...    0.001 sec

Time for model grid setup =    0.047 sec

------------------------------
INITIAL GUESS: MODEL POTENTIAL
------------------------------
Loading Hartree-Fock densities                     ... done
Calculating cut-offs                               ... done
Initializing the effective Hamiltonian             ... done
Setting up the integral package (SHARK)            ... done
Starting the Coulomb interaction                   ... done (   0.0 sec)
Reading the grid                                   ... done
Mapping shells                                     ... done
Starting the XC term evaluation                    ... done (   0.1 sec)
  promolecular density results
     # of electrons  =      9.999112526
     EX              =     -8.731483146
     EC              =     -0.316253077
     EX+EC           =     -9.047736223
Transforming the Hamiltonian                       ... done (   0.0 sec)
Diagonalizing the Hamiltonian                      ... done (   0.0 sec)
Back transforming the eigenvectors                 ... done (   0.0 sec)
Now organizing SCF variables                       ... done
                      ------------------
                      INITIAL GUESS DONE (   0.1 sec)
                      ------------------
-------------------
DFT GRID GENERATION
-------------------

General Integration Accuracy     IntAcc      ... 4.388
Radial Grid Type                 RadialGrid  ... OptM3 with GC (2021)
Angular Grid (max. ang.)         AngularGrid ... 4 (Lebedev-302)
Angular grid pruning method      GridPruning ... 4 (adaptive)
Weight generation scheme         WeightScheme... Becke
Basis function cutoff            BFCut       ... 1.0000e-10
Integration weight cutoff        WCut        ... 1.0000e-14
Angular grids for H and He will be reduced by one unit
Partially contracted basis set               ... off
Rotationally invariant grid construction     ... off

Total number of grid points                  ...    13067
Total number of batches                      ...      206
Average number of points per batch           ...       63
Average number of grid points per atom       ...     4356
Time for grid setup =    0.170 sec

--------------
SCF ITERATIONS
--------------
ITER       Energy         Delta-E        Max-DP      RMS-DP      [F,P]     Damp
               ***  Starting incremental Fock matrix formation  ***
  0    -76.2855361469   0.000000000000 0.05217112  0.00247097  0.3007994 0.7000
  1    -76.3365101956  -0.050974048749 0.02899086  0.00136703  0.0944358 0.7000
                               ***Turning on DIIS***
  2    -76.3488643045  -0.012354108918 0.02173000  0.00116331  0.0160757 0.0000
  3    -76.3786577088  -0.029793404245 0.01657738  0.00067495  0.0548737 0.0000
  4    -76.3817539126  -0.003096203813 0.00418010  0.00020919  0.0110269 0.0000
                      *** Initiating the SOSCF procedure ***
                           *** Shutting down DIIS ***
                      *** Re-Reading the Fockian *** 
                      *** Removing any level shift *** 
ITER      Energy       Delta-E        Grad      Rot      Max-DP    RMS-DP
  5    -76.38192812  -0.0001742115  0.000862  0.000862  0.000949  0.000056
               *** Restarting incremental Fock matrix formation ***
  6    -76.38193635  -0.0000082226  0.000363  0.001124  0.000836  0.000037
  7    -76.38193676  -0.0000004150  0.000279  0.000214  0.000197  0.000011
  8    -76.38193707  -0.0000003094  0.000137  0.000312  0.000170  0.000010
                 **** Energy Check signals convergence ****
              ***Rediagonalizing the Fockian in SOSCF/NRSCF***

               *****************************************************
               *                     SUCCESS                       *
               *           SCF CONVERGED AFTER   9 CYCLES          *
               *****************************************************


----------------
TOTAL SCF ENERGY
----------------

Total Energy       :          -76.38193720 Eh           -2078.45818 eV

Components:
Nuclear Repulsion  :            9.19218248 Eh             250.13200 eV
Electronic Energy  :          -85.57411968 Eh           -2328.59018 eV
One Electron Energy:         -123.03160534 Eh           -3347.86018 eV
Two Electron Energy:           37.45748566 Eh            1019.27000 eV

Virial components:
Potential Energy   :         -152.57587072 Eh           -4151.80052 eV
Kinetic Energy     :           76.19393352 Eh            2073.34234 eV
Virial Ratio       :            2.00246744


DFT components:
N(Alpha)           :        4.999993359530 electrons
N(Beta)            :        4.999993359530 electrons
N(Total)           :        9.999986719060 electrons
E(X)               :       -8.922404985005 Eh       
E(C)               :       -0.324988083015 Eh       
E(XC)              :       -9.247393068019 Eh       
DFET-embed. en.    :        0.000000000000 Eh       

---------------
SCF CONVERGENCE
---------------

  Last Energy change         ...   -1.3367e-07  Tolerance :   1.0000e-06
  Last MAX-Density change    ...    4.6045e-05  Tolerance :   1.0000e-05
  Last RMS-Density change    ...    2.1854e-06  Tolerance :   1.0000e-06
  Last Orbital Gradient      ...    2.1444e-05  Tolerance :   5.0000e-05
  Last Orbital Rotation      ...    6.0368e-05  Tolerance :   5.0000e-05

             **** THE GBW FILE WAS UPDATED (H2O.gbw) ****
             **** DENSITY H2O.scfp WAS UPDATED ****
             **** ENERGY FILE WAS UPDATED (H2O.en.tmp) ****
             **** THE GBW FILE WAS UPDATED (H2O.gbw) ****
             **** DENSITY H2O.scfp WAS UPDATED ****
----------------
ORBITAL ENERGIES
----------------

  NO   OCC          E(Eh)            E(eV) 
   0   2.0000     -18.748038      -510.1600 
   1   2.0000      -0.927901       -25.2495 
   2   2.0000      -0.483326       -13.1520 
   3   2.0000      -0.337447        -9.1824 
   4   2.0000      -0.261859        -7.1255 
   5   0.0000      -0.014649        -0.3986 
   6   0.0000       0.052365         1.4249 
   7   0.0000       0.251094         6.8326 
   8   0.0000       0.274989         7.4828 
   9   0.0000       0.302210         8.2236 
  10   0.0000       0.311147         8.4667 
  11   0.0000       0.420811        11.4509 
  12   0.0000       0.512168        13.9368 
  13   0.0000       0.669194        18.2097 
  14   0.0000       0.726817        19.7777 
  15   0.0000       0.830121        22.5888 
  16   0.0000       1.002409        27.2769 
  17   0.0000       1.121447        30.5161 
  18   0.0000       1.126040        30.6411 
  19   0.0000       1.363627        37.1062 
  20   0.0000       1.422943        38.7202 
  21   0.0000       1.692614        46.0584 
  22   0.0000       1.744969        47.4830 
  23   0.0000       1.762057        47.9480 
  24   0.0000       1.907803        51.9140 
  25   0.0000       1.946856        52.9766 
  26   0.0000       1.977156        53.8011 
  27   0.0000       2.454624        66.7937 
  28   0.0000       3.217260        87.5461 
  29   0.0000       3.283727        89.3548 
  30   0.0000       3.414138        92.9034 
  31   0.0000       3.503682        95.3400 
  32   0.0000       3.630214        98.7832 
  33   0.0000       3.716938       101.1430 
  34   0.0000       3.762659       102.3872 
  35   0.0000       3.796781       103.3157 
  36   0.0000       3.982571       108.3713 
  37   0.0000       4.029525       109.6490 
  38   0.0000       4.229682       115.0955 
  39   0.0000       4.309455       117.2662 
  40   0.0000       4.427494       120.4782 
  41   0.0000       4.455722       121.2464 
  42   0.0000       4.570133       124.3597 
  43   0.0000       4.717008       128.3563 
  44   0.0000       4.841887       131.7544 
  45   0.0000       4.879194       132.7696 
  46   0.0000       4.944989       134.5600 
  47   0.0000       5.816074       158.2634 
  48   0.0000       5.837079       158.8350 
  49   0.0000       5.930297       161.3716 
  50   0.0000       6.071104       165.2031 
  51   0.0000       6.091963       165.7707 
  52   0.0000       6.212755       169.0577 
  53   0.0000       6.220643       169.2723 
  54   0.0000       6.651720       181.0025 
  55   0.0000       6.693566       182.1412 
  56   0.0000       7.269941       197.8252 
  57   0.0000       7.530620       204.9186 
  58   0.0000       7.877534       214.3586 
  59   0.0000       8.572664       233.2740 
  60   0.0000       9.170297       249.5365 
  61   0.0000      33.065161       899.7488 
  62   0.0000      33.393057       908.6713 
  63   0.0000      33.672910       916.2865 

                    ********************************
                    * MULLIKEN POPULATION ANALYSIS *
                    ********************************

-----------------------
MULLIKEN ATOMIC CHARGES
-----------------------
   0 O :   -0.389634
   1 H :    0.194782
   2 H :    0.194852
Sum of atomic charges:    0.0000000

--------------------------------
MULLIKEN REDUCED ORBITAL CHARGES
--------------------------------
  0 O s       :     3.715414  s :     3.715414
      pz      :     1.481271  p :     4.662209
      px      :     1.316402
      py      :     1.864536
      dz2     :     0.004479  d :     0.011625
      dxz     :     0.001062
      dyz     :     0.002358
      dx2y2   :     0.002985
      dxy     :     0.000742
      f0      :    -0.000017  f :     0.000386
      f+1     :    -0.000034
      f-1     :     0.000098
      f+2     :     0.000054
      f-2     :     0.000036
      f+3     :     0.000166
      f-3     :     0.000084
  1 H s       :     0.700471  s :     0.700471
      pz      :     0.026536  p :     0.097151
      px      :     0.037008
      py      :     0.033606
      dz2     :     0.000754  d :     0.007596
      dxz     :     0.002072
      dyz     :     0.000002
      dx2y2   :     0.002462
      dxy     :     0.002307
  2 H s       :     0.700429  s :     0.700429
      pz      :     0.037581  p :     0.097125
      px      :     0.024468
      py      :     0.035076
      dz2     :     0.002715  d :     0.007594
      dxz     :     0.001721
      dyz     :     0.002127
      dx2y2   :     0.000553
      dxy     :     0.000477


                     *******************************
                     * LOEWDIN POPULATION ANALYSIS *
                     *******************************

----------------------
LOEWDIN ATOMIC CHARGES
----------------------
   0 O :    0.103319
   1 H :   -0.051722
   2 H :   -0.051597

-------------------------------
LOEWDIN REDUCED ORBITAL CHARGES
-------------------------------
  0 O s       :     3.282697  s :     3.282697
      pz      :     1.491289  p :     4.568748
      px      :     1.365848
      py      :     1.711610
      dz2     :     0.015264  d :     0.038430
      dxz     :     0.004597
      dyz     :     0.004562
      dx2y2   :     0.013320
      dxy     :     0.000687
      f0      :     0.001138  f :     0.006806
      f+1     :     0.001987
      f-1     :     0.001077
      f+2     :     0.000392
      f-2     :     0.000359
      f+3     :     0.001577
      f-3     :     0.000277
  1 H s       :     0.674582  s :     0.674582
      pz      :     0.075134  p :     0.309760
      px      :     0.136172
      py      :     0.098454
      dz2     :     0.005660  d :     0.067380
      dxz     :     0.020718
      dyz     :     0.000008
      dx2y2   :     0.016780
      dxy     :     0.024214
  2 H s       :     0.674564  s :     0.674564
      pz      :     0.137979  p :     0.309677
      px      :     0.064869
      py      :     0.106829
      dz2     :     0.023762  d :     0.067355
      dxz     :     0.014661
      dyz     :     0.019924
      dx2y2   :     0.004948
      dxy     :     0.004060


                      *****************************
                      * MAYER POPULATION ANALYSIS *
                      *****************************

  NA   - Mulliken gross atomic population
  ZA   - Total nuclear charge
  QA   - Mulliken gross atomic charge
  VA   - Mayer's total valence
  BVA  - Mayer's bonded valence
  FA   - Mayer's free valence

  ATOM       NA         ZA         QA         VA         BVA        FA
  0 O      8.3896     8.0000    -0.3896     2.0644     2.0644     0.0000
  1 H      0.8052     1.0000     0.1948     1.0501     1.0501     0.0000
  2 H      0.8051     1.0000     0.1949     1.0501     1.0501     0.0000

  Mayer bond orders larger than 0.100000
B(  0-O ,  1-H ) :   1.0322 B(  0-O ,  2-H ) :   1.0322 

-------
TIMINGS
-------

Total SCF time: 0 days 0 hours 0 min 2 sec 

Total time                  ....       2.245 sec
Sum of individual times     ....       2.135 sec  ( 95.1%)

Fock matrix formation       ....       1.849 sec  ( 82.4%)
  Split-RI-J                ....       0.215 sec  ( 11.6% of F)
  XC integration            ....       1.584 sec  ( 85.6% of F)
    Basis function eval.    ....       0.562 sec  ( 35.5% of XC)
    Density eval.           ....       0.293 sec  ( 18.5% of XC)
    XC-Functional eval.     ....       0.334 sec  ( 21.1% of XC)
    XC-Potential eval.      ....       0.352 sec  ( 22.2% of XC)
Diagonalization             ....       0.005 sec  (  0.2%)
Density matrix formation    ....       0.000 sec  (  0.0%)
Population analysis         ....       0.001 sec  (  0.1%)
Initial guess               ....       0.059 sec  (  2.6%)
Orbital Transformation      ....       0.000 sec  (  0.0%)
Orbital Orthonormalization  ....       0.000 sec  (  0.0%)
DIIS solution               ....       0.001 sec  (  0.1%)
SOSCF solution              ....       0.001 sec  (  0.1%)
Grid generation             ....       0.216 sec  (  9.6%)

Maximum memory used throughout the entire SCF-calculation: 11.6 MB

-------------------------   --------------------
FINAL SINGLE POINT ENERGY       -76.381937204758
-------------------------   --------------------


                            ***************************************
                            *     ORCA property calculations      *
                            ***************************************

                                    ---------------------
                                    Active property flags
                                    ---------------------
   (+) Dipole Moment
   (+) Chemical Shifts
   (+) Nuclear properties (Hyperfine,Quadrupole)


------------------------------------------------------------------------------
                       ORCA ELECTRIC PROPERTIES CALCULATION
------------------------------------------------------------------------------

Dipole Moment Calculation                       ... on
Quadrupole Moment Calculation                   ... off
Polarizability Calculation                      ... off
GBWName                                         ... H2O.gbw
Electron density                                ... H2O.scfp
The origin for moment calculation is the CENTER OF MASS  = (-10.056636,  2.778749 -0.071586)

-------------
DIPOLE MOMENT
-------------
                                X             Y             Z
Electronic contribution:     -0.11870      -0.05768       0.15773
Nuclear contribution   :      0.56010       0.27208      -0.74405
                        -----------------------------------------
Total Dipole Moment    :      0.44139       0.21440      -0.58632
                        -----------------------------------------
Magnitude (a.u.)       :      0.76457
Magnitude (Debye)      :      1.94339



--------------------
Rotational spectrum 
--------------------
 
Rotational constants in cm-1:    27.719161    14.494982     9.517870 
Rotational constants in MHz : 830999.538536 434548.636402 285338.577758 

 Dipole components along the rotational axes: 
x,y,z [a.u.] :     0.000141     0.764574    -0.000000 
x,y,z [Debye]:     0.000357     1.943392    -0.000000 

 
------------------------------------------------------------------------------
                                ORCA EPR/NMR CALCULATION
------------------------------------------------------------------------------

GBWName                      ... H2O.gbw
Electron density             ... H2O.scfp
Spin density                 ... H2O.scfr
Treatment of gauge           ... GIAO (approximations 1/2el = 0,0)
Details of the CP(SCF) procedure:
       Solver   = POPLE   
       MaxIter  =    64   
       Tolerance=    1.000e-03
       Op-0     =   0-  4 =>   5- 63
Multiplicity                 ... 1
g-tensor                     ... 0
NMR chemical shifts          ... 1
NMR spin-spin couplings      ... 0
NMR spectrum                 ... 0
Number of nuclei for epr/nmr ... 3
   Nucleus:   0O 
       Hyperfine : Isotope=   17 I=   2.500 P= -72.357
       Quadrupole: Isotope=   17 I=   2.500 Q=  -0.026
       Spin-Orbit: Zeff=   5.600
       Nuclear Spin-Spin: Gn=   0.000
       EPRNMR Input: 
       rho(0)=N f(grad)=N a(iso)=N a(dip)=N a(orb)=N sigma(nmr)=Y spin-spin(nmr)=all-N,DSO-N,PSO-N,FC-N,SD-N
   Nucleus:   1H 
       Hyperfine : Isotope=    1 I=   0.500 P= 533.552
       Quadrupole: Isotope=    2 I=   1.000 Q=   0.003
       Spin-Orbit: Zeff=   1.000
       Nuclear Spin-Spin: Gn=   0.000
       EPRNMR Input: 
       rho(0)=N f(grad)=N a(iso)=N a(dip)=N a(orb)=N sigma(nmr)=Y spin-spin(nmr)=all-N,DSO-N,PSO-N,FC-N,SD-N
   Nucleus:   2H 
       Hyperfine : Isotope=    1 I=   0.500 P= 533.552
       Quadrupole: Isotope=    2 I=   1.000 Q=   0.003
       Spin-Orbit: Zeff=   1.000
       Nuclear Spin-Spin: Gn=   0.000
       EPRNMR Input: 
       rho(0)=N f(grad)=N a(iso)=N a(dip)=N a(orb)=N sigma(nmr)=Y spin-spin(nmr)=all-N,DSO-N,PSO-N,FC-N,SD-N
Forming RHS of the CP-SCF equations         ... 
Calculating right hand sides for GIAO treatment        ... 
  Entering RightHandSide GIAO. ScalHFX=    0.0000 NeedHFX=0
     -> 1-electron GIAO integrals will be done analytically
     -> RI used in SCF. Same chosen for GIAO calculation.
     Making grid for GIAO integrations   ...

GRID GIAO
---------

General Integration Accuracy     IntAcc      ... 4.388
Radial Grid Type                 RadialGrid  ... OptM3 with GC (2021)
Angular Grid (max. ang.)         AngularGrid ... 4 (Lebedev-302)
Angular grid pruning method      GridPruning ... 4 (adaptive)
Weight generation scheme         WeightScheme... Becke
Basis function cutoff            BFCut       ... 1.0000e-10
Integration weight cutoff        WCut        ... 1.0000e-14
Angular grids for H and He will be reduced by one unit
Partially contracted basis set               ... off
Rotationally invariant grid construction     ... off

Total number of grid points                  ...    13067
Total number of batches                      ...      206
Average number of points per batch           ...       63
Average number of grid points per atom       ...     4356

  One-electron GIAO integrals (SHARK)     ... done
  Calculating G(B)[P]                     ... (RI-J: SHARK-ok) (copy J to G-ok) => dG/dB done
  DFT XC-terms                            ... done
  Extracting occupied and virtual blocks  ... 
  Operator  0  NO=   5 NV=  59 
  Transforming and RHS contribution       ... done
  Adding eps_i * S(B)_ai terms            ... done

  GIAO profiling information: 
    Total GIAO time               ...       1.2 sec
       GIAO 1-electron integrals  ...       0.0 sec (  1.8%)
       GIAO RI-J                  ...       0.1 sec (  7.2%)
       GIAO XC-terms              ...       0.9 sec ( 78.7%)

  GIAO right hand side done


Forming final perturbed densities           ... done
Transforming perturbed density to AO basis  ... done

Magnetic field perturbation calculated in  1.171 sec

---------------
CHEMICAL SHIFTS
---------------

Note: using conversion factor for au to ppm alpha^2/2 =   26.625677252 
GIAO: Analytic para- and diamagnetic shielding integrals (SHARK)       ...done
 --------------
 Nucleus   0O :
 --------------

Diamagnetic contribution to the shielding tensor (ppm) : 
           392.113         -0.560         5.730
            -1.913        374.044        -5.165
             5.236         -7.204       385.533

Paramagnetic contribution to the shielding tensor (ppm): 
           -42.994         -4.808         9.004
            -3.473        -65.757        -5.729
             9.493         -3.717       -51.447

Total shielding tensor (ppm): 
           349.118         -5.368        14.734
            -5.386        308.286       -10.894
            14.729        -10.921       334.086


 Diagonalized sT*s matrix:
 
 sDSO           371.407          384.229          396.053  iso=     383.896
 sPSO           -67.114          -57.255          -35.829  iso=     -53.399
        ---------------  ---------------  ---------------
 Total          304.293          326.974          360.224  iso=     330.497

 --------------
 Nucleus   1H :
 --------------

Diamagnetic contribution to the shielding tensor (ppm) : 
            43.509          1.660         1.983
            -0.152         31.627         2.076
             0.416          1.848        26.623

Paramagnetic contribution to the shielding tensor (ppm): 
             0.688         -2.437         0.147
             0.094         -7.439        -2.571
            -0.257         -2.340        -1.263

Total shielding tensor (ppm): 
            44.197         -0.778         2.130
            -0.058         24.188        -0.494
             0.159         -0.493        25.360


 Diagonalized sT*s matrix:
 
 sDSO            32.303           25.922           43.535  iso=      33.920
 sPSO            -8.295           -0.456            0.737  iso=      -2.671
        ---------------  ---------------  ---------------
 Total           24.008           25.465           44.272  iso=      31.248

 --------------
 Nucleus   2H :
 --------------

Diamagnetic contribution to the shielding tensor (ppm) : 
            28.440         -2.480         5.236
            -2.273         23.842        -6.276
             6.216         -8.464        37.910

Paramagnetic contribution to the shielding tensor (ppm): 
            -0.062          0.499         0.174
            -0.425          2.200         0.677
             1.164          2.865         1.396

Total shielding tensor (ppm): 
            28.378         -1.980         5.410
            -2.699         26.041        -5.599
             7.380         -5.600        39.306


 Diagonalized sT*s matrix:
 
 sDSO            20.747           25.916           43.529  iso=      30.064
 sPSO             3.247           -0.452            0.738  iso=       1.178
        ---------------  ---------------  ---------------
 Total           23.994           25.464           44.267  iso=      31.242



--------------------------------
CHEMICAL SHIELDING SUMMARY (ppm)
--------------------------------


  Nucleus  Element    Isotropic     Anisotropy
  -------  -------  ------------   ------------
      0       O          330.497         44.591 
      1       H           31.248         19.535 
      2       H           31.242         19.538 



Maximum memory used throughout the entire EPRNMR-calculation: 11.6 MB

Timings for individual modules:

Sum of individual times         ...        3.970 sec (=   0.066 min)
GTO integral calculation        ...        0.300 sec (=   0.005 min)   7.6 %
SCF iterations                  ...        2.277 sec (=   0.038 min)  57.4 %
EPR/NMR calculation             ...        1.393 sec (=   0.023 min)  35.1 %
                             ****ORCA TERMINATED NORMALLY****
TOTAL RUN TIME: 0 days 0 hours 0 minutes 4 seconds 107 msec
