
                                 *****************
                                 * O   R   C   A *
                                 *****************

                                            #,                                       
                                            ###                                      
                                            ####                                     
                                            #####                                    
                                            ######                                   
                                           ########,                                 
                                     ,,################,,,,,                         
                               ,,#################################,,                 
                          ,,##########################################,,             
                       ,#########################################, ''#####,          
                    ,#############################################,,   '####,        
                  ,##################################################,,,,####,       
                ,###########''''           ''''###############################       
              ,#####''   ,,,,##########,,,,          '''####'''          '####       
            ,##' ,,,,###########################,,,                        '##       
           ' ,,###''''                  '''############,,,                           
         ,,##''                                '''############,,,,        ,,,,,,###''
      ,#''                                            '''#######################'''  
     '                                                          ''''####''''         
             ,#######,   #######,   ,#######,      ##                                
            ,#'     '#,  ##    ##  ,#'     '#,    #''#        ######   ,####,        
            ##       ##  ##   ,#'  ##            #'  '#       #        #'  '#        
            ##       ##  #######   ##           ,######,      #####,   #    #        
            '#,     ,#'  ##    ##  '#,     ,#' ,#      #,         ##   #,  ,#        
             '#######'   ##     ##  '#######'  #'      '#     #####' # '####'        



                  #######################################################
                  #                        -***-                        #
                  #          Department of theory and spectroscopy      #
                  #    Directorship and core code : Frank Neese         #
                  #        Max Planck Institute fuer Kohlenforschung    #
                  #                Kaiser Wilhelm Platz 1               #
                  #                 D-45470 Muelheim/Ruhr               #
                  #                      Germany                        #
                  #                                                     #
                  #                  All rights reserved                #
                  #                        -***-                        #
                  #######################################################


                         Program Version 5.0.2 -  RELEASE  -


 With contributions from (in alphabetic order):
   Daniel Aravena         : Magnetic Suceptibility
   Michael Atanasov       : Ab Initio Ligand Field Theory (pilot matlab implementation)
   Alexander A. Auer      : GIAO ZORA, VPT2 properties, NMR spectrum
   Ute Becker             : Parallelization
   Giovanni Bistoni       : ED, misc. LED, open-shell LED, HFLD
   Martin Brehm           : Molecular dynamics
   Dmytro Bykov           : SCF Hessian
   Vijay G. Chilkuri      : MRCI spin determinant printing, contributions to CSF-ICE
   Dipayan Datta          : RHF DLPNO-CCSD density
   Achintya Kumar Dutta   : EOM-CC, STEOM-CC
   Dmitry Ganyushin       : Spin-Orbit,Spin-Spin,Magnetic field MRCI
   Miquel Garcia          : C-PCM and meta-GGA Hessian, CC/C-PCM, Gaussian charge scheme
   Yang Guo               : DLPNO-NEVPT2, F12-NEVPT2, CIM, IAO-localization
   Andreas Hansen         : Spin unrestricted coupled pair/coupled cluster methods
   Benjamin Helmich-Paris : MC-RPA, TRAH-SCF, COSX integrals
   Lee Huntington         : MR-EOM, pCC
   Robert Izsak           : Overlap fitted RIJCOSX, COSX-SCS-MP3, EOM
   Marcus Kettner         : VPT2
   Christian Kollmar      : KDIIS, OOCD, Brueckner-CCSD(T), CCSD density, CASPT2, CASPT2-K
   Simone Kossmann        : Meta GGA functionals, TD-DFT gradient, OOMP2, MP2 Hessian
   Martin Krupicka        : Initial AUTO-CI
   Lucas Lang             : DCDCAS
   Marvin Lechner         : AUTO-CI (C++ implementation), FIC-MRCC
   Dagmar Lenk            : GEPOL surface, SMD
   Dimitrios Liakos       : Extrapolation schemes; Compound Job, initial MDCI parallelization
   Dimitrios Manganas     : Further ROCIS development; embedding schemes
   Dimitrios Pantazis     : SARC Basis sets
   Anastasios Papadopoulos: AUTO-CI, single reference methods and gradients
   Taras Petrenko         : DFT Hessian,TD-DFT gradient, ASA, ECA, R-Raman, ABS, FL, XAS/XES, NRVS
   Peter Pinski           : DLPNO-MP2, DLPNO-MP2 Gradient
   Christoph Reimann      : Effective Core Potentials
   Marius Retegan         : Local ZFS, SOC
   Christoph Riplinger    : Optimizer, TS searches, QM/MM, DLPNO-CCSD(T), (RO)-DLPNO pert. Triples
   Tobias Risthaus        : Range-separated hybrids, TD-DFT gradient, RPA, STAB
   Michael Roemelt        : Original ROCIS implementation
   Masaaki Saitow         : Open-shell DLPNO-CCSD energy and density
   Barbara Sandhoefer     : DKH picture change effects
   Avijit Sen             : IP-ROCIS
   Kantharuban Sivalingam : CASSCF convergence, NEVPT2, FIC-MRCI
   Bernardo de Souza      : ESD, SOC TD-DFT
   Georgi Stoychev        : AutoAux, RI-MP2 NMR, DLPNO-MP2 response
   Willem Van den Heuvel  : Paramagnetic NMR
   Boris Wezisla          : Elementary symmetry handling
   Frank Wennmohs         : Technical directorship


 We gratefully acknowledge several colleagues who have allowed us to
 interface, adapt or use parts of their codes:
   Stefan Grimme, W. Hujo, H. Kruse, P. Pracht,  : VdW corrections, initial TS optimization,
                  C. Bannwarth, S. Ehlert          DFT functionals, gCP, sTDA/sTD-DF
   Ed Valeev, F. Pavosevic, A. Kumar             : LibInt (2-el integral package), F12 methods
   Garnet Chan, S. Sharma, J. Yang, R. Olivares  : DMRG
   Ulf Ekstrom                                   : XCFun DFT Library
   Mihaly Kallay                                 : mrcc  (arbitrary order and MRCC methods)
   Jiri Pittner, Ondrej Demel                    : Mk-CCSD
   Frank Weinhold                                : gennbo (NPA and NBO analysis)
   Christopher J. Cramer and Donald G. Truhlar   : smd solvation model
   Lars Goerigk                                  : TD-DFT with DH, B97 family of functionals
   V. Asgeirsson, H. Jonsson                     : NEB implementation
   FAccTs GmbH                                   : IRC, NEB, NEB-TS, DLPNO-Multilevel, CI-OPT
                                                   MM, QMMM, 2- and 3-layer-ONIOM, Crystal-QMMM,
                                                   LR-CPCM, SF, NACMEs, symmetry and pop. for TD-DFT,
                                                   nearIR, NL-DFT gradient (VV10), updates on ESD,
                                                   ML-optimized integration grids
   S Lehtola, MJT Oliveira, MAL Marques          : LibXC Library
   Liviu Ungur et al                             : ANISO software


 Your calculation uses the libint2 library for the computation of 2-el integrals
 For citations please refer to: http://libint.valeyev.net

 Your ORCA version has been built with support for libXC version: 5.1.0
 For citations please refer to: https://tddft.org/programs/libxc/

 This ORCA versions uses:
   CBLAS   interface :  Fast vector & matrix operations
   LAPACKE interface :  Fast linear algebra routines
   SCALAPACK package :  Parallel linear algebra routines
   Shared memory     :  Shared parallel matrices
   BLAS/LAPACK       :  OpenBLAS 0.3.15  USE64BITINT DYNAMIC_ARCH NO_AFFINITY Haswell SINGLE_THREADED
        Core in use  :  Haswell
   Copyright (c) 2011-2014, The OpenBLAS Project




***************************************
The coordinates will be read from file: TMS.xyz
***************************************



Information: The global flag for chemical shieldings has been found
             ==>> will calculate the chemical shieldings for all atoms in the system

================================================================================

----- Orbital basis set information -----
Your calculation utilizes the basis: pcSseg-2
   F. Jensen, J. Chem. Theory Comput. 11, 132 (2015).

----- AuxJ basis set information -----
Your calculation utilizes the auxiliary basis: def2/J
   F. Weigend, Phys. Chem. Chem. Phys. 8, 1057 (2006).

================================================================================
                                        WARNINGS
                       Please study these warnings very carefully!
================================================================================


INFO   : the flag for use of the SHARK integral package has been found!

================================================================================
                                       INPUT FILE
================================================================================
NAME = TMS.inp
|  1> !PBE RI pcSseg-2 def2/J NMR
|  2> ! CPCM(Water)
|  3> 
|  4> *xyzfile 0 1 TMS.xyz
|  5> 
|  6> 
|  7>                          ****END OF INPUT****
================================================================================

                       ****************************
                       * Single Point Calculation *
                       ****************************

---------------------------------
CARTESIAN COORDINATES (ANGSTROEM)
---------------------------------
  Si    -2.021825    1.206620   -0.015103
  C     -0.732671    2.579515    0.092645
  C     -3.751585    1.958629    0.028090
  C     -1.794860    0.255736   -1.628519
  C     -1.803813    0.031602    1.444173
  H     -0.825221    3.278165   -0.740977
  H      0.280948    2.174278    0.071607
  H     -0.838182    3.153174    1.015667
  H     -3.900348    2.659688   -0.795610
  H     -3.926704    2.502589    0.958281
  H     -4.521680    1.189102   -0.052948
  H     -1.908452    0.911510   -2.494138
  H     -2.529852   -0.545612   -1.725172
  H     -0.803727   -0.198145   -1.688371
  H     -1.934832    0.549875    2.395945
  H     -0.807724   -0.415322    1.447631
  H     -2.528862   -0.784263    1.411679

----------------------------
CARTESIAN COORDINATES (A.U.)
----------------------------
  NO LB      ZA    FRAG     MASS         X           Y           Z
   0 Si   14.0000    0    28.086   -3.820696    2.280181   -0.028540
   1 C     6.0000    0    12.011   -1.384547    4.874576    0.175073
   2 C     6.0000    0    12.011   -7.089468    3.701273    0.053082
   3 C     6.0000    0    12.011   -3.391794    0.483271   -3.077455
   4 C     6.0000    0    12.011   -3.408712    0.059719    2.729092
   5 H     1.0000    0     1.008   -1.559442    6.194834   -1.400244
   6 H     1.0000    0     1.008    0.530916    4.108790    0.135319
   7 H     1.0000    0     1.008   -1.583934    5.958635    1.919333
   8 H     1.0000    0     1.008   -7.370589    5.026082   -1.503484
   9 H     1.0000    0     1.008   -7.420396    4.729207    1.810889
  10 H     1.0000    0     1.008   -8.544737    2.247076   -0.100057
  11 H     1.0000    0     1.008   -3.606452    1.722504   -4.713238
  12 H     1.0000    0     1.008   -4.780728   -1.031058   -3.260103
  13 H     1.0000    0     1.008   -1.518824   -0.374439   -3.190559
  14 H     1.0000    0     1.008   -3.656302    1.039113    4.527679
  15 H     1.0000    0     1.008   -1.526376   -0.784845    2.735626
  16 H     1.0000    0     1.008   -4.778857   -1.482042    2.667686

--------------------------------
INTERNAL COORDINATES (ANGSTROEM)
--------------------------------
 Si     0   0   0     0.000000000000     0.00000000     0.00000000
 C      1   0   0     1.886363797777     0.00000000     0.00000000
 C      1   2   0     1.886651065080   109.58293786     0.00000000
 C      1   2   3     1.886480174453   109.48003327   119.88520619
 C      1   2   3     1.886182178882   109.28145026   239.80706316
 H      2   1   3     1.091605677911   111.36113586   299.90404056
 H      2   1   3     1.091825740728   111.29859588   179.90402737
 H      2   1   3     1.091873591299   111.38447040    59.92966290
 H      3   1   2     1.091830552412   111.32051835    58.92870319
 H      3   1   2     1.091702862987   111.41884712   298.91489248
 H      3   1   2     1.091689951505   111.35140633   178.85702946
 H      4   1   2     1.091897007171   111.27065566   300.18359888
 H      4   1   2     1.091656113100   111.39074050   180.25174628
 H      4   1   2     1.091757828528   111.44822976    60.15657314
 H      5   1   2     1.091623059413   111.40215097    60.42034753
 H      5   1   2     1.091763060605   111.27967476   300.43956764
 H      5   1   2     1.091965145419   111.44932001   180.50749273

---------------------------
INTERNAL COORDINATES (A.U.)
---------------------------
 Si     0   0   0     0.000000000000     0.00000000     0.00000000
 C      1   0   0     3.564710966743     0.00000000     0.00000000
 C      1   2   0     3.565253823272   109.58293786     0.00000000
 C      1   2   3     3.564930886789   109.48003327   119.88520619
 C      1   2   3     3.564367756770   109.28145026   239.80706316
 H      2   1   3     2.062835777486   111.36113586   299.90404056
 H      2   1   3     2.063251635943   111.29859588   179.90402737
 H      2   1   3     2.063342060416   111.38447040    59.92966290
 H      3   1   2     2.063260728706   111.32051835    58.92870319
 H      3   1   2     2.063019430664   111.41884712   298.91489248
 H      3   1   2     2.062995031498   111.35140633   178.85702946
 H      4   1   2     2.063386310001   111.27065566   300.18359888
 H      4   1   2     2.062931086180   111.39074050   180.25174628
 H      4   1   2     2.063123300482   111.44822976    60.15657314
 H      5   1   2     2.062868623764   111.40215097    60.42034753
 H      5   1   2     2.063133187674   111.27967476   300.43956764
 H      5   1   2     2.063515072629   111.44932001   180.50749273

---------------------
BASIS SET INFORMATION
---------------------
There are 3 groups of distinct atoms

 Group   1 Type Si  : 15s11p2d1f contracted to 5s7p2d1f pattern {83211/5111111/11/1}
 Group   2 Type C   : 11s7p2d1f contracted to 4s5p2d1f pattern {7211/31111/11/1}
 Group   3 Type H   : 6s3p1d contracted to 3s2p1d pattern {411/21/1}

Atom   0Si   basis set group =>   1
Atom   1C    basis set group =>   2
Atom   2C    basis set group =>   2
Atom   3C    basis set group =>   2
Atom   4C    basis set group =>   2
Atom   5H    basis set group =>   3
Atom   6H    basis set group =>   3
Atom   7H    basis set group =>   3
Atom   8H    basis set group =>   3
Atom   9H    basis set group =>   3
Atom  10H    basis set group =>   3
Atom  11H    basis set group =>   3
Atom  12H    basis set group =>   3
Atom  13H    basis set group =>   3
Atom  14H    basis set group =>   3
Atom  15H    basis set group =>   3
Atom  16H    basis set group =>   3
---------------------------------
AUXILIARY/J BASIS SET INFORMATION
---------------------------------
There are 3 groups of distinct atoms

 Group   1 Type Si  : 14s5p5d2f1g contracted to 8s4p3d1f1g pattern {71111111/2111/311/2/1}
 Group   2 Type C   : 12s5p4d2f1g contracted to 6s4p3d1f1g pattern {711111/2111/211/2/1}
 Group   3 Type H   : 5s2p1d contracted to 3s1p1d pattern {311/2/1}

Atom   0Si   basis set group =>   1
Atom   1C    basis set group =>   2
Atom   2C    basis set group =>   2
Atom   3C    basis set group =>   2
Atom   4C    basis set group =>   2
Atom   5H    basis set group =>   3
Atom   6H    basis set group =>   3
Atom   7H    basis set group =>   3
Atom   8H    basis set group =>   3
Atom   9H    basis set group =>   3
Atom  10H    basis set group =>   3
Atom  11H    basis set group =>   3
Atom  12H    basis set group =>   3
Atom  13H    basis set group =>   3
Atom  14H    basis set group =>   3
Atom  15H    basis set group =>   3
Atom  16H    basis set group =>   3
------------------------------------------------------------------------------
                           ORCA GTO INTEGRAL CALCULATION
                           -- RI-GTO INTEGRALS CHOSEN --
------------------------------------------------------------------------------
------------------------------------------------------------------------------
                   ___                                                        
                  /   \      - P O W E R E D   B Y -                         
                 /     \                                                     
                 |  |  |   _    _      __       _____    __    __             
                 |  |  |  | |  | |    /  \     |  _  \  |  |  /  |          
                  \  \/   | |  | |   /    \    | | | |  |  | /  /          
                 / \  \   | |__| |  /  /\  \   | |_| |  |  |/  /          
                |  |  |   |  __  | /  /__\  \  |    /   |      \           
                |  |  |   | |  | | |   __   |  |    \   |  |\   \          
                \     /   | |  | | |  |  |  |  | |\  \  |  | \   \       
                 \___/    |_|  |_| |__|  |__|  |_| \__\ |__|  \__/        
                                                                              
                      - O R C A' S   B I G   F R I E N D -                    
                                      &                                       
                       - I N T E G R A L  F E E D E R -                       
                                                                              
 v1 FN, 2020, v2 2021                                                         
------------------------------------------------------------------------------


Reading SHARK input file TMS.SHARKINP.tmp ... ok
----------------------
SHARK INTEGRAL PACKAGE
----------------------

Number of atoms                             ...     17
Number of basis functions                   ...    355
Number of shells                            ...    135
Maximum angular momentum                    ...      3
Integral batch strategy                     ... SHARK/LIBINT Hybrid
RI-J (if used) integral strategy            ... SPLIT-RIJ (Revised 2003 algorithm where possible)
Printlevel                                  ...      1
Contraction scheme used                     ... SEGMENTED contraction
Coulomb Range Separation                    ... NOT USED
Exchange Range Separation                   ... NOT USED
Finite Nucleus Model                        ... NOT USED
Auxiliary Coulomb fitting basis             ... AVAILABLE
   # of basis functions in Aux-J            ...    379
   # of shells in Aux-J                     ...    137
   Maximum angular momentum in Aux-J        ...      4
Auxiliary J/K fitting basis                 ... NOT available
Auxiliary Correlation fitting basis         ... NOT available
Auxiliary 'external' fitting basis          ... NOT available
Integral threshold                          ...     1.000000e-10
Primitive cut-off                           ...     1.000000e-11
Primitive pair pre-selection threshold      ...     1.000000e-11

Calculating pre-screening integrals         ... done (  0.2 sec) Dimension = 135
Organizing shell pair data                  ... done (  0.2 sec)
Shell pair information
Total number of shell pairs                 ...      9180
Shell pairs after pre-screening             ...      8409
Total number of primitive shell pairs       ...     27487
Primitive shell pairs kept                  ...     18065
          la=0 lb=0:   1625 shell pairs
          la=1 lb=0:   2711 shell pairs
          la=1 lb=1:   1131 shell pairs
          la=2 lb=0:   1136 shell pairs
          la=2 lb=1:    942 shell pairs
          la=2 lb=2:    211 shell pairs
          la=3 lb=0:    285 shell pairs
          la=3 lb=1:    243 shell pairs
          la=3 lb=2:    110 shell pairs
          la=3 lb=3:     15 shell pairs

Calculating one electron integrals          ... done (  0.1 sec)
Calculating RI/J V-Matrix + Cholesky decomp.... done (  0.0 sec)
Calculating Nuclear repulsion               ... done (  0.0 sec) ENN=    245.349258266907 Eh

SHARK setup successfully completed in   0.9 seconds

Maximum memory used throughout the entire GTOINT-calculation: 100.0 MB
-------------------------------------------------------------------------------
                                 ORCA SCF
-------------------------------------------------------------------------------

------------
SCF SETTINGS
------------
Hamiltonian:
 Density Functional     Method          .... DFT(GTOs)
 Exchange Functional    Exchange        .... PBE
   PBE kappa parameter   XKappa         ....  0.804000
   PBE mue parameter    XMuePBE         ....  0.219520
 Correlation Functional Correlation     .... PBE
   PBE beta parameter  CBetaPBE         ....  0.066725
 LDA part of GGA corr.  LDAOpt          .... PW91-LDA
 Gradients option       PostSCFGGA      .... off
   Density functional embedding theory  .... OFF
   NL short-range parameter             ....  6.400000
 RI-approximation to the Coulomb term is turned on
   Number of AuxJ basis functions       .... 379


General Settings:
 Integral files         IntName         .... TMS
 Hartree-Fock type      HFTyp           .... RHF
 Total Charge           Charge          ....    0
 Multiplicity           Mult            ....    1
 Number of Electrons    NEL             ....   50
 Basis Dimension        Dim             ....  355
 Nuclear Repulsion      ENuc            ....    245.3492582669 Eh

Convergence Acceleration:
 DIIS                   CNVDIIS         .... on
   Start iteration      DIISMaxIt       ....    12
   Startup error        DIISStart       ....  0.200000
   # of expansion vecs  DIISMaxEq       ....     5
   Bias factor          DIISBfac        ....   1.050
   Max. coefficient     DIISMaxC        ....  10.000
 Trust-Rad. Augm. Hess. CNVTRAH         .... auto
   Auto Start mean grad. ratio tolernc. ....  1.125000
   Auto Start start iteration           ....    20
   Auto Start num. interpolation iter.  ....    10
   Max. Number of Micro iterations      ....    16
   Max. Number of Macro iterations      .... Maxiter - #DIIS iter
   Number of Davidson start vectors     ....     2
   Converg. threshold I  (grad. norm)   ....   5.000e-05
   Converg. threshold II (energy diff.) ....   1.000e-06
   Grad. Scal. Fac. for Micro threshold ....   0.100
   Minimum threshold for Micro iter.    ....   0.010
   NR start threshold (gradient norm)   ....   0.001
   Initial trust radius                 ....   0.400
   Minimum AH scaling param. (alpha)    ....   1.000
   Maximum AH scaling param. (alpha)    .... 1000.000
   Orbital update algorithm             .... Taylor
   White noise on init. David. guess    .... on
   Maximum white noise                  ....   0.010
   Quad. conv. algorithm                .... NR
 SOSCF                  CNVSOSCF        .... on
   Start iteration      SOSCFMaxIt      ....   150
   Startup grad/error   SOSCFStart      ....  0.003300
 Level Shifting         CNVShift        .... on
   Level shift para.    LevelShift      ....    0.2500
   Turn off err/grad.   ShiftErr        ....    0.0010
 Zerner damping         CNVZerner       .... off
 Static damping         CNVDamp         .... on
   Fraction old density DampFac         ....    0.7000
   Max. Damping (<1)    DampMax         ....    0.9800
   Min. Damping (>=0)   DampMin         ....    0.0000
   Turn off err/grad.   DampErr         ....    0.1000
 Fernandez-Rico         CNVRico         .... off

SCF Procedure:
 Maximum # iterations   MaxIter         ....   125
 SCF integral mode      SCFMode         .... Direct
   Integral package                     .... SHARK and LIBINT hybrid scheme
 Reset frequency        DirectResetFreq ....    20
 Integral Threshold     Thresh          ....  1.000e-10 Eh
 Primitive CutOff       TCut            ....  1.000e-11 Eh

Convergence Tolerance:
 Convergence Check Mode ConvCheckMode   .... Total+1el-Energy
 Convergence forced     ConvForced      .... 0
 Energy Change          TolE            ....  1.000e-06 Eh
 1-El. energy change                    ....  1.000e-03 Eh
 Orbital Gradient       TolG            ....  5.000e-05
 Orbital Rotation angle TolX            ....  5.000e-05
 DIIS Error             TolErr          ....  1.000e-06


Diagonalization of the overlap matrix:
Smallest eigenvalue                        ... 1.207e-03
Time for diagonalization                   ...    0.023 sec
Threshold for overlap eigenvalues          ... 1.000e-08
Number of eigenvalues below threshold      ... 0
Time for construction of square roots      ...    0.011 sec
Total time needed                          ...    0.034 sec

Time for model grid setup =    0.673 sec

------------------------------
INITIAL GUESS: MODEL POTENTIAL
------------------------------
Loading Hartree-Fock densities                     ... done
Calculating cut-offs                               ... done
Initializing the effective Hamiltonian             ... done
Setting up the integral package (SHARK)            ... done
Starting the Coulomb interaction                   ... done (   0.9 sec)
Reading the grid                                   ... done
Mapping shells                                     ... done
Starting the XC term evaluation                    ... done (   1.0 sec)
  promolecular density results
     # of electrons  =     49.994734758
     EX              =    -44.217920662
     EC              =     -1.654575529
     EX+EC           =    -45.872496191
Transforming the Hamiltonian                       ... done (   0.0 sec)
Diagonalizing the Hamiltonian                      ... done (   0.1 sec)
Back transforming the eigenvectors                 ... done (   0.0 sec)
Now organizing SCF variables                       ... done
                      ------------------
                      INITIAL GUESS DONE (   2.6 sec)
                      ------------------
-------------------
DFT GRID GENERATION
-------------------

General Integration Accuracy     IntAcc      ... 4.388
Radial Grid Type                 RadialGrid  ... OptM3 with GC (2021)
Angular Grid (max. ang.)         AngularGrid ... 4 (Lebedev-302)
Angular grid pruning method      GridPruning ... 4 (adaptive)
Weight generation scheme         WeightScheme... Becke
Basis function cutoff            BFCut       ... 1.0000e-10
Integration weight cutoff        WCut        ... 1.0000e-14
Angular grids for H and He will be reduced by one unit
Partially contracted basis set               ... off
Rotationally invariant grid construction     ... off

Total number of grid points                  ...    70076
Total number of batches                      ...     1104
Average number of points per batch           ...       63
Average number of grid points per atom       ...     4122
Time for grid setup =    1.785 sec


--------------------
CPCM SOLVATION MODEL
--------------------
CPCM parameters:
  Epsilon                                         ...      80.4000
  Refrac                                          ...       1.3300
  Rsolv                                           ...       1.3000
  Surface type                                    ... GAUSSIAN VDW
  Epsilon function type                           ...         CPCM
Radii:
 Radius for Si used is    4.7621 Bohr (=   2.5200 Ang.)
 Radius for C  used is    3.8550 Bohr (=   2.0400 Ang.)
 Radius for H  used is    2.4944 Bohr (=   1.3200 Ang.)
Calculating surface                               ...        done! (  0.0s)
GEPOL surface points                              ...          998
GEPOL Volume                                      ...     943.5265
GEPOL Surface-area                                ...     547.7554
Calculating surface distance matrix               ...        done! (  0.0s)
Performing Cholesky decomposition & store         ...        done! (  0.1s)
Overall time for CPCM initialization              ...                 0.1s
--------------
SCF ITERATIONS
--------------
ITER       Energy         Delta-E        Max-DP      RMS-DP      [F,P]     Damp
               ***  Starting incremental Fock matrix formation  ***
  0   -448.5725763881   0.000000000000 0.03383349  0.00075133  0.2149703 0.7000
  1   -448.7291677693  -0.156591381229 0.02334922  0.00053555  0.0933633 0.7000
                               ***Turning on DIIS***
  2   -448.7823990979  -0.053231328629 0.02910210  0.00082009  0.0264898 0.0000
  3   -448.8502033675  -0.067804269616 0.01675376  0.00034619  0.0620169 0.0000
  4   -448.8791568984  -0.028953530871 0.00502900  0.00013752  0.0183479 0.0000
  5   -448.8817903889  -0.002633490443 0.00203882  0.00006470  0.0050085 0.0000
                      *** Initiating the SOSCF procedure ***
                           *** Shutting down DIIS ***
                      *** Re-Reading the Fockian *** 
                      *** Removing any level shift *** 
ITER      Energy       Delta-E        Grad      Rot      Max-DP    RMS-DP
  6   -448.88202301  -0.0002326244  0.000467  0.000467  0.000972  0.000032
               *** Restarting incremental Fock matrix formation ***
  7   -448.88204433  -0.0000213141  0.000222  0.000685  0.000837  0.000028
  8   -448.88204499  -0.0000006619  0.000210  0.000164  0.000207  0.000005
  9   -448.88204707  -0.0000020841  0.000036  0.000105  0.000144  0.000005
                 **** Energy Check signals convergence ****
              ***Rediagonalizing the Fockian in SOSCF/NRSCF***

               *****************************************************
               *                     SUCCESS                       *
               *           SCF CONVERGED AFTER  10 CYCLES          *
               *****************************************************


----------------
TOTAL SCF ENERGY
----------------

Total Energy       :         -448.88204720 Eh          -12214.70149 eV

Components:
Nuclear Repulsion  :          245.34925827 Eh            6676.29273 eV
Electronic Energy  :         -694.23130547 Eh          -18890.99422 eV
One Electron Energy:        -1102.02939842 Eh          -29987.74448 eV
Two Electron Energy:          407.79809295 Eh           11096.75026 eV
CPCM Dielectric    :           -0.00209959 Eh              -0.05713 eV

Virial components:
Potential Energy   :         -896.73411597 Eh          -24401.37584 eV
Kinetic Energy     :          447.85206877 Eh           12186.67435 eV
Virial Ratio       :            2.00229982


DFT components:
N(Alpha)           :       25.000000224918 electrons
N(Beta)            :       25.000000224918 electrons
N(Total)           :       50.000000449836 electrons
E(X)               :      -45.120590981242 Eh       
E(C)               :       -1.660846616522 Eh       
E(XC)              :      -46.781437597764 Eh       
DFET-embed. en.    :        0.000000000000 Eh       
CPCM Solvation Model Properties:
Surface-charge          :           -0.03522599
Charge-correction       :            0.00016247 Eh               0.00442 eV
Free-energy (cav+disp)  :  This term is not implemented in the current solvation scheme

---------------
SCF CONVERGENCE
---------------

  Last Energy change         ...   -1.2959e-07  Tolerance :   1.0000e-06
  Last MAX-Density change    ...    2.8174e-05  Tolerance :   1.0000e-05
  Last RMS-Density change    ...    8.8387e-07  Tolerance :   1.0000e-06
  Last Orbital Gradient      ...    7.8101e-06  Tolerance :   5.0000e-05
  Last Orbital Rotation      ...    2.4176e-05  Tolerance :   5.0000e-05

             **** THE GBW FILE WAS UPDATED (TMS.gbw) ****
             **** DENSITY TMS.scfp WAS UPDATED ****
             **** ENERGY FILE WAS UPDATED (TMS.en.tmp) ****
             **** THE GBW FILE WAS UPDATED (TMS.gbw) ****
             **** DENSITY TMS.scfp WAS UPDATED ****
----------------
ORBITAL ENERGIES
----------------

  NO   OCC          E(Eh)            E(eV) 
   0   2.0000     -65.359349     -1778.5183 
   1   2.0000      -9.848592      -267.9938 
   2   2.0000      -9.848531      -267.9922 
   3   2.0000      -9.848505      -267.9915 
   4   2.0000      -9.848488      -267.9910 
   5   2.0000      -5.014658      -136.4558 
   6   2.0000      -3.424602       -93.1882 
   7   2.0000      -3.424596       -93.1880 
   8   2.0000      -3.424564       -93.1871 
   9   2.0000      -0.644545       -17.5390 
  10   2.0000      -0.604184       -16.4407 
  11   2.0000      -0.604026       -16.4364 
  12   2.0000      -0.604008       -16.4359 
  13   2.0000      -0.403136       -10.9699 
  14   2.0000      -0.361379        -9.8336 
  15   2.0000      -0.361307        -9.8317 
  16   2.0000      -0.361248        -9.8301 
  17   2.0000      -0.346870        -9.4388 
  18   2.0000      -0.346695        -9.4341 
  19   2.0000      -0.329406        -8.9636 
  20   2.0000      -0.329376        -8.9628 
  21   2.0000      -0.329337        -8.9617 
  22   2.0000      -0.253759        -6.9051 
  23   2.0000      -0.253554        -6.8996 
  24   2.0000      -0.253487        -6.8977 
  25   0.0000      -0.003977        -0.1082 
  26   0.0000       0.033940         0.9236 
  27   0.0000       0.033952         0.9239 
  28   0.0000       0.033974         0.9245 
  29   0.0000       0.052876         1.4388 
  30   0.0000       0.052890         1.4392 
  31   0.0000       0.053025         1.4429 
  32   0.0000       0.087748         2.3878 
  33   0.0000       0.088042         2.3958 
  34   0.0000       0.097591         2.6556 
  35   0.0000       0.103818         2.8250 
  36   0.0000       0.103878         2.8267 
  37   0.0000       0.104232         2.8363 
  38   0.0000       0.108245         2.9455 
  39   0.0000       0.108273         2.9463 
  40   0.0000       0.108434         2.9506 
  41   0.0000       0.124307         3.3826 
  42   0.0000       0.124660         3.3922 
  43   0.0000       0.168797         4.5932 
  44   0.0000       0.168806         4.5934 
  45   0.0000       0.168911         4.5963 
  46   0.0000       0.215470         5.8632 
  47   0.0000       0.216031         5.8785 
  48   0.0000       0.216094         5.8802 
  49   0.0000       0.226299         6.1579 
  50   0.0000       0.286799         7.8042 
  51   0.0000       0.287541         7.8244 
  52   0.0000       0.287716         7.8291 
  53   0.0000       0.305188         8.3046 
  54   0.0000       0.305208         8.3051 
  55   0.0000       0.305444         8.3116 
  56   0.0000       0.317439         8.6379 
  57   0.0000       0.341359         9.2888 
  58   0.0000       0.341410         9.2902 
  59   0.0000       0.341658         9.2970 
  60   0.0000       0.344430         9.3724 
  61   0.0000       0.344473         9.3736 
  62   0.0000       0.344970         9.3871 
  63   0.0000       0.346222         9.4212 
  64   0.0000       0.346481         9.4282 
  65   0.0000       0.361217         9.8292 
  66   0.0000       0.361264         9.8305 
  67   0.0000       0.361301         9.8315 
  68   0.0000       0.439159        11.9501 
  69   0.0000       0.467320        12.7164 
  70   0.0000       0.467447        12.7199 
  71   0.0000       0.520914        14.1748 
  72   0.0000       0.553240        15.0544 
  73   0.0000       0.553495        15.0614 
  74   0.0000       0.554291        15.0830 
  75   0.0000       0.643288        17.5048 
  76   0.0000       0.643675        17.5153 
  77   0.0000       0.643709        17.5162 
  78   0.0000       0.668145        18.1811 
  79   0.0000       0.668239        18.1837 
  80   0.0000       0.668596        18.1934 
  81   0.0000       0.745603        20.2889 
  82   0.0000       0.745706        20.2917 
  83   0.0000       0.856158        23.2972 
  84   0.0000       0.856368        23.3030 
  85   0.0000       0.856613        23.3096 
  86   0.0000       0.904188        24.6042 
  87   0.0000       0.904242        24.6057 
  88   0.0000       0.904835        24.6218 
  89   0.0000       0.926162        25.2022 
  90   0.0000       0.926302        25.2060 
  91   0.0000       0.926546        25.2126 
  92   0.0000       0.960713        26.1423 
  93   0.0000       0.966633        26.3034 
  94   0.0000       0.966759        26.3069 
  95   0.0000       0.967105        26.3163 
  96   0.0000       0.986330        26.8394 
  97   0.0000       0.992765        27.0145 
  98   0.0000       0.993554        27.0360 
  99   0.0000       0.997000        27.1297 
 100   0.0000       0.997104        27.1326 
 101   0.0000       0.997376        27.1400 
 102   0.0000       1.018067        27.7030 
 103   0.0000       1.018590        27.7172 
 104   0.0000       1.018641        27.7186 
 105   0.0000       1.054460        28.6933 
 106   0.0000       1.054511        28.6947 
 107   0.0000       1.054939        28.7063 
 108   0.0000       1.100238        29.9390 
 109   0.0000       1.100422        29.9440 
 110   0.0000       1.108081        30.1524 
 111   0.0000       1.108578        30.1660 
 112   0.0000       1.108644        30.1677 
 113   0.0000       1.218564        33.1588 
 114   0.0000       1.218630        33.1606 
 115   0.0000       1.220300        33.2061 
 116   0.0000       1.244078        33.8531 
 117   0.0000       1.244185        33.8560 
 118   0.0000       1.244512        33.8649 
 119   0.0000       1.274467        34.6800 
 120   0.0000       1.296185        35.2710 
 121   0.0000       1.296619        35.2828 
 122   0.0000       1.362252        37.0688 
 123   0.0000       1.363612        37.1058 
 124   0.0000       1.363772        37.1101 
 125   0.0000       1.374833        37.4111 
 126   0.0000       1.442911        39.2636 
 127   0.0000       1.443009        39.2663 
 128   0.0000       1.443425        39.2776 
 129   0.0000       1.511487        41.1297 
 130   0.0000       1.511607        41.1329 
 131   0.0000       1.512899        41.1681 
 132   0.0000       1.517805        41.3016 
 133   0.0000       1.518520        41.3210 
 134   0.0000       1.570829        42.7444 
 135   0.0000       1.572042        42.7774 
 136   0.0000       1.572317        42.7849 
 137   0.0000       1.581336        43.0303 
 138   0.0000       1.581637        43.0385 
 139   0.0000       1.582218        43.0543 
 140   0.0000       1.600398        43.5490 
 141   0.0000       1.608267        43.7632 
 142   0.0000       1.608696        43.7748 
 143   0.0000       1.648179        44.8492 
 144   0.0000       1.648652        44.8621 
 145   0.0000       1.648978        44.8710 
 146   0.0000       1.828498        49.7560 
 147   0.0000       1.828922        49.7675 
 148   0.0000       1.829587        49.7856 
 149   0.0000       1.901835        51.7516 
 150   0.0000       1.902148        51.7601 
 151   0.0000       1.903033        51.7842 
 152   0.0000       2.022959        55.0475 
 153   0.0000       2.074999        56.4636 
 154   0.0000       2.075233        56.4700 
 155   0.0000       2.076222        56.4969 
 156   0.0000       2.174790        59.1791 
 157   0.0000       2.217902        60.3522 
 158   0.0000       2.218381        60.3652 
 159   0.0000       2.218457        60.3673 
 160   0.0000       2.372359        64.5552 
 161   0.0000       2.372521        64.5596 
 162   0.0000       2.374223        64.6059 
 163   0.0000       2.385100        64.9019 
 164   0.0000       2.437783        66.3355 
 165   0.0000       2.438051        66.3427 
 166   0.0000       2.497702        67.9659 
 167   0.0000       2.497875        67.9706 
 168   0.0000       2.498382        67.9844 
 169   0.0000       2.542615        69.1881 
 170   0.0000       2.542959        69.1974 
 171   0.0000       2.543488        69.2118 
 172   0.0000       3.084870        83.9436 
 173   0.0000       3.084914        83.9448 
 174   0.0000       3.112664        84.6999 
 175   0.0000       3.112932        84.7072 
 176   0.0000       3.113012        84.7094 
 177   0.0000       3.206840        87.2625 
 178   0.0000       3.229072        87.8675 
 179   0.0000       3.229096        87.8682 
 180   0.0000       3.229165        87.8700 
 181   0.0000       3.231986        87.9468 
 182   0.0000       3.260645        88.7267 
 183   0.0000       3.261466        88.7490 
 184   0.0000       3.261556        88.7515 
 185   0.0000       3.287917        89.4688 
 186   0.0000       3.288221        89.4771 
 187   0.0000       3.288397        89.4818 
 188   0.0000       3.310907        90.0944 
 189   0.0000       3.310932        90.0950 
 190   0.0000       3.412366        92.8552 
 191   0.0000       3.412463        92.8578 
 192   0.0000       3.413959        92.8986 
 193   0.0000       3.441571        93.6499 
 194   0.0000       3.441677        93.6528 
 195   0.0000       3.442327        93.6705 
 196   0.0000       3.574180        97.2584 
 197   0.0000       3.575393        97.2914 
 198   0.0000       3.596077        97.8542 
 199   0.0000       3.596789        97.8736 
 200   0.0000       3.596897        97.8766 
 201   0.0000       3.718812       101.1940 
 202   0.0000       3.718959       101.1980 
 203   0.0000       3.749373       102.0256 
 204   0.0000       3.749456       102.0279 
 205   0.0000       3.749498       102.0290 
 206   0.0000       3.773711       102.6879 
 207   0.0000       3.773786       102.6899 
 208   0.0000       3.773931       102.6939 
 209   0.0000       3.802971       103.4841 
 210   0.0000       3.803662       103.5029 
 211   0.0000       3.803771       103.5059 
 212   0.0000       3.803918       103.5099 
 213   0.0000       3.847815       104.7044 
 214   0.0000       3.848141       104.7132 
 215   0.0000       3.848301       104.7176 
 216   0.0000       3.901946       106.1774 
 217   0.0000       3.902102       106.1816 
 218   0.0000       3.902619       106.1957 
 219   0.0000       4.024222       109.5047 
 220   0.0000       4.024585       109.5145 
 221   0.0000       4.025548       109.5407 
 222   0.0000       4.026037       109.5540 
 223   0.0000       4.026200       109.5585 
 224   0.0000       4.051129       110.2368 
 225   0.0000       4.051498       110.2469 
 226   0.0000       4.141907       112.7070 
 227   0.0000       4.164489       113.3215 
 228   0.0000       4.164755       113.3287 
 229   0.0000       4.165138       113.3392 
 230   0.0000       4.174750       113.6007 
 231   0.0000       4.175425       113.6191 
 232   0.0000       4.175763       113.6283 
 233   0.0000       4.215458       114.7084 
 234   0.0000       4.215589       114.7120 
 235   0.0000       4.216038       114.7242 
 236   0.0000       4.261914       115.9726 
 237   0.0000       4.393970       119.5660 
 238   0.0000       4.394497       119.5803 
 239   0.0000       4.421129       120.3050 
 240   0.0000       4.421794       120.3231 
 241   0.0000       4.421953       120.3275 
 242   0.0000       4.434121       120.6586 
 243   0.0000       4.442385       120.8834 
 244   0.0000       4.442401       120.8839 
 245   0.0000       4.442500       120.8866 
 246   0.0000       4.455128       121.2302 
 247   0.0000       4.455209       121.2324 
 248   0.0000       4.455253       121.2336 
 249   0.0000       4.455914       121.2516 
 250   0.0000       4.456176       121.2587 
 251   0.0000       4.457305       121.2894 
 252   0.0000       4.474582       121.7596 
 253   0.0000       4.474623       121.7607 
 254   0.0000       4.544205       123.6541 
 255   0.0000       4.544804       123.6704 
 256   0.0000       4.544859       123.6719 
 257   0.0000       4.555179       123.9527 
 258   0.0000       4.555361       123.9577 
 259   0.0000       4.555458       123.9603 
 260   0.0000       4.570058       124.3576 
 261   0.0000       4.625197       125.8580 
 262   0.0000       4.625996       125.8797 
 263   0.0000       4.626559       125.8951 
 264   0.0000       4.627914       125.9319 
 265   0.0000       4.628350       125.9438 
 266   0.0000       4.629106       125.9644 
 267   0.0000       4.634891       126.1218 
 268   0.0000       4.644747       126.3900 
 269   0.0000       4.644869       126.3933 
 270   0.0000       4.672447       127.1437 
 271   0.0000       4.672788       127.1530 
 272   0.0000       4.673344       127.1682 
 273   0.0000       4.698291       127.8470 
 274   0.0000       4.698942       127.8647 
 275   0.0000       4.754525       129.3772 
 276   0.0000       4.768064       129.7456 
 277   0.0000       4.768152       129.7480 
 278   0.0000       4.768301       129.7521 
 279   0.0000       4.804441       130.7355 
 280   0.0000       4.804637       130.7408 
 281   0.0000       4.804925       130.7487 
 282   0.0000       4.835475       131.5800 
 283   0.0000       4.835677       131.5855 
 284   0.0000       4.836427       131.6059 
 285   0.0000       5.402849       147.0190 
 286   0.0000       5.403059       147.0247 
 287   0.0000       5.403299       147.0312 
 288   0.0000       5.414088       147.3248 
 289   0.0000       5.414247       147.3291 
 290   0.0000       5.414583       147.3383 
 291   0.0000       5.455407       148.4492 
 292   0.0000       5.455469       148.4509 
 293   0.0000       5.455947       148.4639 
 294   0.0000       5.477868       149.0604 
 295   0.0000       5.478631       149.0811 
 296   0.0000       5.575332       151.7125 
 297   0.0000       5.597732       152.3220 
 298   0.0000       5.598542       152.3441 
 299   0.0000       5.598839       152.3521 
 300   0.0000       5.668806       154.2560 
 301   0.0000       5.682887       154.6392 
 302   0.0000       5.683359       154.6521 
 303   0.0000       5.699912       155.1025 
 304   0.0000       5.700469       155.1177 
 305   0.0000       5.700838       155.1277 
 306   0.0000       5.701605       155.1486 
 307   0.0000       5.714043       155.4870 
 308   0.0000       5.714287       155.4936 
 309   0.0000       5.714373       155.4960 
 310   0.0000       5.721442       155.6884 
 311   0.0000       5.721516       155.6904 
 312   0.0000       5.722044       155.7047 
 313   0.0000       5.819115       158.3462 
 314   0.0000       5.819298       158.3511 
 315   0.0000       5.819450       158.3553 
 316   0.0000       5.863994       159.5674 
 317   0.0000       5.864157       159.5718 
 318   0.0000       5.864713       159.5869 
 319   0.0000       5.864934       159.5930 
 320   0.0000       5.865484       159.6079 
 321   0.0000       5.901120       160.5776 
 322   0.0000       5.901779       160.5956 
 323   0.0000       5.902155       160.6058 
 324   0.0000       5.959998       162.1798 
 325   0.0000       6.088670       165.6811 
 326   0.0000       6.090362       165.7272 
 327   0.0000       6.090403       165.7283 
 328   0.0000       6.665164       181.3683 
 329   0.0000       6.665814       181.3860 
 330   0.0000       6.748441       183.6344 
 331   0.0000       6.749089       183.6520 
 332   0.0000       6.749352       183.6592 
 333   0.0000       6.751295       183.7121 
 334   0.0000       6.751983       183.7308 
 335   0.0000       6.752115       183.7344 
 336   0.0000      14.463850       393.5814 
 337   0.0000      14.464220       393.5914 
 338   0.0000      14.465509       393.6265 
 339   0.0000      15.362600       418.0376 
 340   0.0000      18.716153       509.2924 
 341   0.0000      18.762500       510.5536 
 342   0.0000      18.764291       510.6023 
 343   0.0000      18.764439       510.6064 
 344   0.0000      18.819027       512.0918 
 345   0.0000      18.819559       512.1062 
 346   0.0000      18.832842       512.4677 
 347   0.0000      18.833582       512.4878 
 348   0.0000      18.833727       512.4918 
 349   0.0000      18.914798       514.6978 
 350   0.0000      18.915385       514.7138 
 351   0.0000      18.915604       514.7197 
 352   0.0000      51.205495      1393.3724 
 353   0.0000      51.205804      1393.3808 
 354   0.0000      51.207055      1393.4148 

                    ********************************
                    * MULLIKEN POPULATION ANALYSIS *
                    ********************************

-----------------------
MULLIKEN ATOMIC CHARGES
-----------------------
   0 Si:    0.645546
   1 C :   -0.337401
   2 C :   -0.337235
   3 C :   -0.337706
   4 C :   -0.336017
   5 H :    0.058502
   6 H :    0.058706
   7 H :    0.058636
   8 H :    0.058462
   9 H :    0.058875
  10 H :    0.058676
  11 H :    0.058420
  12 H :    0.058586
  13 H :    0.058887
  14 H :    0.058395
  15 H :    0.058204
  16 H :    0.058465
Sum of atomic charges:    0.0000000

--------------------------------
MULLIKEN REDUCED ORBITAL CHARGES
--------------------------------
  0 Sis       :     5.172803  s :     5.172803
      pz      :     2.633214  p :     7.900262
      px      :     2.633479
      py      :     2.633569
      dz2     :     0.059427  d :     0.260551
      dxz     :     0.026417
      dyz     :     0.068110
      dx2y2   :     0.041668
      dxy     :     0.064929
      f0      :     0.003484  f :     0.020837
      f+1     :     0.002579
      f-1     :     0.002782
      f+2     :     0.002610
      f-2     :     0.003386
      f+3     :     0.003136
      f-3     :     0.002860
  1 C s       :     3.130330  s :     3.130330
      pz      :     1.030195  p :     3.190901
      px      :     1.077243
      py      :     1.083463
      dz2     :     0.003584  d :     0.016198
      dxz     :     0.001314
      dyz     :     0.004407
      dx2y2   :     0.002683
      dxy     :     0.004211
      f0      :     0.000015  f :    -0.000028
      f+1     :    -0.000008
      f-1     :    -0.000050
      f+2     :    -0.000062
      f-2     :     0.000023
      f+3     :     0.000060
      f-3     :    -0.000006
  2 C s       :     3.130309  s :     3.130309
      pz      :     1.029650  p :     3.190761
      px      :     1.115225
      py      :     1.045887
      dz2     :     0.003595  d :     0.016192
      dxz     :     0.001513
      dyz     :     0.004200
      dx2y2   :     0.002610
      dxy     :     0.004275
      f0      :     0.000014  f :    -0.000028
      f+1     :    -0.000004
      f-1     :    -0.000053
      f+2     :    -0.000065
      f-2     :     0.000025
      f+3     :     0.000015
      f-3     :     0.000040
  3 C s       :     3.130399  s :     3.130399
      pz      :     1.104375  p :     3.191123
      px      :     1.031503
      py      :     1.055245
      dz2     :     0.003909  d :     0.016212
      dxz     :     0.001442
      dyz     :     0.004481
      dx2y2   :     0.002319
      dxy     :     0.004060
      f0      :     0.000066  f :    -0.000028
      f+1     :    -0.000059
      f-1     :     0.000015
      f+2     :    -0.000015
      f-2     :     0.000033
      f+3     :    -0.000023
      f-3     :    -0.000045
  4 C s       :     3.129734  s :     3.129734
      pz      :     1.090507  p :     3.190118
      px      :     1.030646
      py      :     1.068965
      dz2     :     0.003918  d :     0.016194
      dxz     :     0.001391
      dyz     :     0.004425
      dx2y2   :     0.002399
      dxy     :     0.004059
      f0      :     0.000051  f :    -0.000028
      f+1     :    -0.000069
      f-1     :     0.000001
      f+2     :     0.000014
      f-2     :     0.000035
      f+3     :    -0.000018
      f-3     :    -0.000044
  5 H s       :     0.894020  s :     0.894020
      pz      :     0.017664  p :     0.045107
      px      :     0.010439
      py      :     0.017004
      dz2     :     0.000656  d :     0.002371
      dxz     :     0.000342
      dyz     :     0.000796
      dx2y2   :     0.000264
      dxy     :     0.000312
  6 H s       :     0.893880  s :     0.893880
      pz      :     0.009301  p :     0.045045
      px      :     0.023532
      py      :     0.012211
      dz2     :     0.000269  d :     0.002369
      dxz     :     0.000474
      dyz     :     0.000159
      dx2y2   :     0.000735
      dxy     :     0.000731
  7 H s       :     0.893964  s :     0.893964
      pz      :     0.019646  p :     0.045032
      px      :     0.010463
      py      :     0.014922
      dz2     :     0.000752  d :     0.002368
      dxz     :     0.000432
      dyz     :     0.000796
      dx2y2   :     0.000165
      dxy     :     0.000223
  8 H s       :     0.894106  s :     0.894106
      pz      :     0.017457  p :     0.045063
      px      :     0.011686
      py      :     0.015920
      dz2     :     0.000644  d :     0.002369
      dxz     :     0.000352
      dyz     :     0.000775
      dx2y2   :     0.000253
      dxy     :     0.000346
  9 H s       :     0.893728  s :     0.893728
      pz      :     0.019773  p :     0.045029
      px      :     0.011807
      py      :     0.013449
      dz2     :     0.000763  d :     0.002368
      dxz     :     0.000474
      dyz     :     0.000762
      dx2y2   :     0.000139
      dxy     :     0.000230
 10 H s       :     0.893881  s :     0.893881
      pz      :     0.009389  p :     0.045073
      px      :     0.019182
      py      :     0.016503
      dz2     :     0.000272  d :     0.002370
      dxz     :     0.000230
      dyz     :     0.000410
      dx2y2   :     0.000682
      dxy     :     0.000777
 11 H s       :     0.894168  s :     0.894168
      pz      :     0.020834  p :     0.045043
      px      :     0.009466
      py      :     0.014743
      dz2     :     0.000729  d :     0.002369
      dxz     :     0.000321
      dyz     :     0.000761
      dx2y2   :     0.000244
      dxy     :     0.000313
 12 H s       :     0.893935  s :     0.893935
      pz      :     0.011237  p :     0.045108
      px      :     0.015783
      py      :     0.018089
      dz2     :     0.000265  d :     0.002371
      dxz     :     0.000256
      dyz     :     0.000434
      dx2y2   :     0.000645
      dxy     :     0.000771
 13 H s       :     0.893736  s :     0.893736
      pz      :     0.011118  p :     0.045009
      px      :     0.021310
      py      :     0.012582
      dz2     :     0.000265  d :     0.002368
      dxz     :     0.000517
      dyz     :     0.000167
      dx2y2   :     0.000652
      dxy     :     0.000767
 14 H s       :     0.894120  s :     0.894120
      pz      :     0.022443  p :     0.045114
      px      :     0.009552
      py      :     0.013119
      dz2     :     0.000843  d :     0.002371
      dxz     :     0.000417
      dyz     :     0.000738
      dx2y2   :     0.000152
      dxy     :     0.000221
 15 H s       :     0.894318  s :     0.894318
      pz      :     0.010714  p :     0.045107
      px      :     0.021449
      py      :     0.012945
      dz2     :     0.000269  d :     0.002371
      dxz     :     0.000513
      dyz     :     0.000157
      dx2y2   :     0.000655
      dxy     :     0.000777
 16 H s       :     0.894148  s :     0.894148
      pz      :     0.010678  p :     0.045020
      px      :     0.015580
      py      :     0.018762
      dz2     :     0.000273  d :     0.002367
      dxz     :     0.000241
      dyz     :     0.000427
      dx2y2   :     0.000653
      dxy     :     0.000773


                     *******************************
                     * LOEWDIN POPULATION ANALYSIS *
                     *******************************

----------------------
LOEWDIN ATOMIC CHARGES
----------------------
   0 Si:    0.943998
   1 C :   -0.290907
   2 C :   -0.290881
   3 C :   -0.290964
   4 C :   -0.290917
   5 H :    0.018131
   6 H :    0.018376
   7 H :    0.018385
   8 H :    0.018374
   9 H :    0.018257
  10 H :    0.018366
  11 H :    0.018328
  12 H :    0.018251
  13 H :    0.018286
  14 H :    0.018248
  15 H :    0.018359
  16 H :    0.018310

-------------------------------
LOEWDIN REDUCED ORBITAL CHARGES
-------------------------------
  0 Sis       :     4.608289  s :     4.608289
      pz      :     2.680887  p :     8.042624
      px      :     2.680924
      py      :     2.680813
      dz2     :     0.079878  d :     0.349682
      dxz     :     0.034974
      dyz     :     0.091715
      dx2y2   :     0.055725
      dxy     :     0.087389
      f0      :     0.009412  f :     0.055407
      f+1     :     0.007102
      f-1     :     0.006700
      f+2     :     0.007218
      f-2     :     0.009190
      f+3     :     0.008352
      f-3     :     0.007434
  1 C s       :     2.821731  s :     2.821731
      pz      :     1.087921  p :     3.342697
      px      :     1.124958
      py      :     1.129818
      dz2     :     0.028094  d :     0.115957
      dxz     :     0.004010
      dyz     :     0.038909
      dx2y2   :     0.017438
      dxy     :     0.027506
      f0      :     0.000203  f :     0.010523
      f+1     :     0.002007
      f-1     :     0.003039
      f+2     :     0.002732
      f-2     :     0.000236
      f+3     :     0.000975
      f-3     :     0.001330
  2 C s       :     2.821766  s :     2.821766
      pz      :     1.087682  p :     3.342682
      px      :     1.154650
      py      :     1.100350
      dz2     :     0.028096  d :     0.115908
      dxz     :     0.004798
      dyz     :     0.038121
      dx2y2   :     0.013254
      dxy     :     0.031639
      f0      :     0.000267  f :     0.010526
      f+1     :     0.001876
      f-1     :     0.003062
      f+2     :     0.001769
      f-2     :     0.001268
      f+3     :     0.000798
      f-3     :     0.001486
  3 C s       :     2.821765  s :     2.821765
      pz      :     1.146118  p :     3.342722
      px      :     1.088870
      py      :     1.107734
      dz2     :     0.027732  d :     0.115950
      dxz     :     0.004076
      dyz     :     0.032492
      dx2y2   :     0.015785
      dxy     :     0.035864
      f0      :     0.000688  f :     0.010528
      f+1     :     0.001684
      f-1     :     0.002033
      f+2     :     0.001514
      f-2     :     0.000758
      f+3     :     0.001482
      f-3     :     0.002368
  4 C s       :     2.821762  s :     2.821762
      pz      :     1.135394  p :     3.342664
      px      :     1.088689
      py      :     1.118582
      dz2     :     0.030191  d :     0.115961
      dxz     :     0.004111
      dyz     :     0.030506
      dx2y2   :     0.015630
      dxy     :     0.035523
      f0      :     0.001128  f :     0.010529
      f+1     :     0.001928
      f-1     :     0.001966
      f+2     :     0.001119
      f-2     :     0.000438
      f+3     :     0.001686
      f-3     :     0.002264
  5 H s       :     0.824541  s :     0.824541
      pz      :     0.048993  p :     0.137946
      px      :     0.037874
      py      :     0.051079
      dz2     :     0.005564  d :     0.019382
      dxz     :     0.003591
      dyz     :     0.005014
      dx2y2   :     0.002399
      dxy     :     0.002813
  6 H s       :     0.824400  s :     0.824400
      pz      :     0.032657  p :     0.137856
      px      :     0.063482
      py      :     0.041718
      dz2     :     0.001683  d :     0.019368
      dxz     :     0.005097
      dyz     :     0.001054
      dx2y2   :     0.005887
      dxy     :     0.005647
  7 H s       :     0.824415  s :     0.824415
      pz      :     0.052872  p :     0.137840
      px      :     0.037896
      py      :     0.047072
      dz2     :     0.005905  d :     0.019360
      dxz     :     0.004437
      dyz     :     0.005402
      dx2y2   :     0.001665
      dxy     :     0.001951
  8 H s       :     0.824389  s :     0.824389
      pz      :     0.048624  p :     0.137871
      px      :     0.042694
      py      :     0.046553
      dz2     :     0.005494  d :     0.019367
      dxz     :     0.003665
      dyz     :     0.004833
      dx2y2   :     0.002293
      dxy     :     0.003082
  9 H s       :     0.824493  s :     0.824493
      pz      :     0.053108  p :     0.137879
      px      :     0.042961
      py      :     0.041810
      dz2     :     0.005943  d :     0.019372
      dxz     :     0.004752
      dyz     :     0.005199
      dx2y2   :     0.001481
      dxy     :     0.001997
 10 H s       :     0.824360  s :     0.824360
      pz      :     0.032787  p :     0.137897
      px      :     0.057362
      py      :     0.047749
      dz2     :     0.001735  d :     0.019377
      dxz     :     0.002808
      dyz     :     0.003346
      dx2y2   :     0.006723
      dxy     :     0.004765
 11 H s       :     0.824425  s :     0.824425
      pz      :     0.059944  p :     0.137884
      px      :     0.033061
      py      :     0.044880
      dz2     :     0.006372  d :     0.019363
      dxz     :     0.003633
      dyz     :     0.004788
      dx2y2   :     0.002083
      dxy     :     0.002487
 12 H s       :     0.824454  s :     0.824454
      pz      :     0.041131  p :     0.137915
      px      :     0.045367
      py      :     0.051417
      dz2     :     0.001636  d :     0.019379
      dxz     :     0.002808
      dyz     :     0.003902
      dx2y2   :     0.006257
      dxy     :     0.004777
 13 H s       :     0.824487  s :     0.824487
      pz      :     0.040896  p :     0.137859
      px      :     0.056224
      py      :     0.040739
      dz2     :     0.001601  d :     0.019368
      dxz     :     0.005323
      dyz     :     0.001368
      dx2y2   :     0.005408
      dxy     :     0.005668
 14 H s       :     0.824464  s :     0.824464
      pz      :     0.062148  p :     0.137907
      px      :     0.033164
      py      :     0.042595
      dz2     :     0.006732  d :     0.019382
      dxz     :     0.004468
      dyz     :     0.005137
      dx2y2   :     0.001393
      dxy     :     0.001652
 15 H s       :     0.824375  s :     0.824375
      pz      :     0.039236  p :     0.137889
      px      :     0.056461
      py      :     0.042192
      dz2     :     0.001605  d :     0.019377
      dxz     :     0.005294
      dyz     :     0.001286
      dx2y2   :     0.005395
      dxy     :     0.005797
 16 H s       :     0.824525  s :     0.824525
      pz      :     0.039161  p :     0.137814
      px      :     0.045012
      py      :     0.053641
      dz2     :     0.001632  d :     0.019351
      dxz     :     0.002671
      dyz     :     0.003878
      dx2y2   :     0.006350
      dxy     :     0.004820


                      *****************************
                      * MAYER POPULATION ANALYSIS *
                      *****************************

  NA   - Mulliken gross atomic population
  ZA   - Total nuclear charge
  QA   - Mulliken gross atomic charge
  VA   - Mayer's total valence
  BVA  - Mayer's bonded valence
  FA   - Mayer's free valence

  ATOM       NA         ZA         QA         VA         BVA        FA
  0 Si    13.3545    14.0000     0.6455     3.9553     3.9553     0.0000
  1 C      6.3374     6.0000    -0.3374     3.8282     3.8282     0.0000
  2 C      6.3372     6.0000    -0.3372     3.8282     3.8282     0.0000
  3 C      6.3377     6.0000    -0.3377     3.8279     3.8279    -0.0000
  4 C      6.3360     6.0000    -0.3360     3.8281     3.8281     0.0000
  5 H      0.9415     1.0000     0.0585     1.0121     1.0121     0.0000
  6 H      0.9413     1.0000     0.0587     1.0118     1.0118     0.0000
  7 H      0.9414     1.0000     0.0586     1.0118     1.0118     0.0000
  8 H      0.9415     1.0000     0.0585     1.0118     1.0118    -0.0000
  9 H      0.9411     1.0000     0.0589     1.0118     1.0118    -0.0000
 10 H      0.9413     1.0000     0.0587     1.0119     1.0119     0.0000
 11 H      0.9416     1.0000     0.0584     1.0118     1.0118     0.0000
 12 H      0.9414     1.0000     0.0586     1.0121     1.0121     0.0000
 13 H      0.9411     1.0000     0.0589     1.0117     1.0117     0.0000
 14 H      0.9416     1.0000     0.0584     1.0120     1.0120     0.0000
 15 H      0.9418     1.0000     0.0582     1.0120     1.0120    -0.0000
 16 H      0.9415     1.0000     0.0585     1.0116     1.0116    -0.0000

  Mayer bond orders larger than 0.100000
B(  0-Si,  1-C ) :   0.9391 B(  0-Si,  2-C ) :   0.9388 B(  0-Si,  3-C ) :   0.9389 
B(  0-Si,  4-C ) :   0.9389 B(  1-C ,  5-H ) :   0.9831 B(  1-C ,  6-H ) :   0.9830 
B(  1-C ,  7-H ) :   0.9831 B(  2-C ,  8-H ) :   0.9830 B(  2-C ,  9-H ) :   0.9831 
B(  2-C , 10-H ) :   0.9831 B(  3-C , 11-H ) :   0.9830 B(  3-C , 12-H ) :   0.9831 
B(  3-C , 13-H ) :   0.9830 B(  4-C , 14-H ) :   0.9832 B(  4-C , 15-H ) :   0.9830 
B(  4-C , 16-H ) :   0.9831 

-------
TIMINGS
-------

Total SCF time: 0 days 0 hours 0 min 49 sec 

Total time                  ....      49.381 sec
Sum of individual times     ....      48.919 sec  ( 99.1%)

Fock matrix formation       ....      44.117 sec  ( 89.3%)
  Split-RI-J                ....       8.535 sec  ( 19.3% of F)
  XC integration            ....      19.894 sec  ( 45.1% of F)
    Basis function eval.    ....       6.172 sec  ( 31.0% of XC)
    Density eval.           ....       5.333 sec  ( 26.8% of XC)
    XC-Functional eval.     ....       1.014 sec  (  5.1% of XC)
    XC-Potential eval.      ....       6.875 sec  ( 34.6% of XC)
Diagonalization             ....       0.234 sec  (  0.5%)
Density matrix formation    ....       0.017 sec  (  0.0%)
Population analysis         ....       0.015 sec  (  0.0%)
Initial guess               ....       1.932 sec  (  3.9%)
Orbital Transformation      ....       0.000 sec  (  0.0%)
Orbital Orthonormalization  ....       0.000 sec  (  0.0%)
DIIS solution               ....       0.095 sec  (  0.2%)
SOSCF solution              ....       0.051 sec  (  0.1%)
Grid generation             ....       2.458 sec  (  5.0%)

Maximum memory used throughout the entire SCF-calculation: 125.7 MB

-------------------------   --------------------
FINAL SINGLE POINT ENERGY      -448.882047202993
-------------------------   --------------------


                            ***************************************
                            *     ORCA property calculations      *
                            ***************************************

                                    ---------------------
                                    Active property flags
                                    ---------------------
   (+) Dipole Moment
   (+) Chemical Shifts
   (+) Nuclear properties (Hyperfine,Quadrupole)


------------------------------------------------------------------------------
                       ORCA ELECTRIC PROPERTIES CALCULATION
------------------------------------------------------------------------------

Dipole Moment Calculation                       ... on
Quadrupole Moment Calculation                   ... off
Polarizability Calculation                      ... off
GBWName                                         ... TMS.gbw
Electron density                                ... TMS.scfp
The origin for moment calculation is the CENTER OF MASS  = (-3.819198,  2.279830 -0.029691)

-------------
DIPOLE MOMENT
-------------
                                X             Y             Z
Electronic contribution:     -0.00879       0.00236       0.00896
Nuclear contribution   :      0.00732      -0.00204      -0.00741
                        -----------------------------------------
Total Dipole Moment    :     -0.00147       0.00031       0.00155
                        -----------------------------------------
Magnitude (a.u.)       :      0.00216
Magnitude (Debye)      :      0.00549



--------------------
Rotational spectrum 
--------------------
 
Rotational constants in cm-1:     0.102767     0.102459     0.102419 
Rotational constants in MHz :  3080.877566  3071.647856  3070.434947 

 Dipole components along the rotational axes: 
x,y,z [a.u.] :     0.000189    -0.001315     0.001704 
x,y,z [Debye]:     0.000481    -0.003344     0.004332 

 
------------------------------------------------------------------------------
                                ORCA EPR/NMR CALCULATION
------------------------------------------------------------------------------

GBWName                      ... TMS.gbw
Electron density             ... TMS.scfp
Spin density                 ... TMS.scfr
Treatment of gauge           ... GIAO (approximations 1/2el = 0,0)
Details of the CP(SCF) procedure:
       Solver   = POPLE   
       MaxIter  =    64   
       Tolerance=    1.000e-03
       Op-0     =   0- 24 =>  25-354
Multiplicity                 ... 1
g-tensor                     ... 0
NMR chemical shifts          ... 1
NMR spin-spin couplings      ... 0
NMR spectrum                 ... 0
Number of nuclei for epr/nmr ... 17
   Nucleus:   0Si
       Hyperfine : Isotope=   29 I=   0.500 P=-106.086
       Quadrupole: Isotope=   29 I=   0.500 Q=   0.000
       Spin-Orbit: Zeff=  12.250
       Nuclear Spin-Spin: Gn=   0.000
       EPRNMR Input: 
       rho(0)=N f(grad)=N a(iso)=N a(dip)=N a(orb)=N sigma(nmr)=Y spin-spin(nmr)=all-N,DSO-N,PSO-N,FC-N,SD-N
   Nucleus:   1C 
       Hyperfine : Isotope=   13 I=   0.500 P= 134.188
       Quadrupole: Isotope=   13 I=   0.500 Q=   0.000
       Spin-Orbit: Zeff=   3.600
       Nuclear Spin-Spin: Gn=   0.000
       EPRNMR Input: 
       rho(0)=N f(grad)=N a(iso)=N a(dip)=N a(orb)=N sigma(nmr)=Y spin-spin(nmr)=all-N,DSO-N,PSO-N,FC-N,SD-N
   Nucleus:   2C 
       Hyperfine : Isotope=   13 I=   0.500 P= 134.188
       Quadrupole: Isotope=   13 I=   0.500 Q=   0.000
       Spin-Orbit: Zeff=   3.600
       Nuclear Spin-Spin: Gn=   0.000
       EPRNMR Input: 
       rho(0)=N f(grad)=N a(iso)=N a(dip)=N a(orb)=N sigma(nmr)=Y spin-spin(nmr)=all-N,DSO-N,PSO-N,FC-N,SD-N
   Nucleus:   3C 
       Hyperfine : Isotope=   13 I=   0.500 P= 134.188
       Quadrupole: Isotope=   13 I=   0.500 Q=   0.000
       Spin-Orbit: Zeff=   3.600
       Nuclear Spin-Spin: Gn=   0.000
       EPRNMR Input: 
       rho(0)=N f(grad)=N a(iso)=N a(dip)=N a(orb)=N sigma(nmr)=Y spin-spin(nmr)=all-N,DSO-N,PSO-N,FC-N,SD-N
   Nucleus:   4C 
       Hyperfine : Isotope=   13 I=   0.500 P= 134.188
       Quadrupole: Isotope=   13 I=   0.500 Q=   0.000
       Spin-Orbit: Zeff=   3.600
       Nuclear Spin-Spin: Gn=   0.000
       EPRNMR Input: 
       rho(0)=N f(grad)=N a(iso)=N a(dip)=N a(orb)=N sigma(nmr)=Y spin-spin(nmr)=all-N,DSO-N,PSO-N,FC-N,SD-N
   Nucleus:   5H 
       Hyperfine : Isotope=    1 I=   0.500 P= 533.552
       Quadrupole: Isotope=    2 I=   1.000 Q=   0.003
       Spin-Orbit: Zeff=   1.000
       Nuclear Spin-Spin: Gn=   0.000
       EPRNMR Input: 
       rho(0)=N f(grad)=N a(iso)=N a(dip)=N a(orb)=N sigma(nmr)=Y spin-spin(nmr)=all-N,DSO-N,PSO-N,FC-N,SD-N
   Nucleus:   6H 
       Hyperfine : Isotope=    1 I=   0.500 P= 533.552
       Quadrupole: Isotope=    2 I=   1.000 Q=   0.003
       Spin-Orbit: Zeff=   1.000
       Nuclear Spin-Spin: Gn=   0.000
       EPRNMR Input: 
       rho(0)=N f(grad)=N a(iso)=N a(dip)=N a(orb)=N sigma(nmr)=Y spin-spin(nmr)=all-N,DSO-N,PSO-N,FC-N,SD-N
   Nucleus:   7H 
       Hyperfine : Isotope=    1 I=   0.500 P= 533.552
       Quadrupole: Isotope=    2 I=   1.000 Q=   0.003
       Spin-Orbit: Zeff=   1.000
       Nuclear Spin-Spin: Gn=   0.000
       EPRNMR Input: 
       rho(0)=N f(grad)=N a(iso)=N a(dip)=N a(orb)=N sigma(nmr)=Y spin-spin(nmr)=all-N,DSO-N,PSO-N,FC-N,SD-N
   Nucleus:   8H 
       Hyperfine : Isotope=    1 I=   0.500 P= 533.552
       Quadrupole: Isotope=    2 I=   1.000 Q=   0.003
       Spin-Orbit: Zeff=   1.000
       Nuclear Spin-Spin: Gn=   0.000
       EPRNMR Input: 
       rho(0)=N f(grad)=N a(iso)=N a(dip)=N a(orb)=N sigma(nmr)=Y spin-spin(nmr)=all-N,DSO-N,PSO-N,FC-N,SD-N
   Nucleus:   9H 
       Hyperfine : Isotope=    1 I=   0.500 P= 533.552
       Quadrupole: Isotope=    2 I=   1.000 Q=   0.003
       Spin-Orbit: Zeff=   1.000
       Nuclear Spin-Spin: Gn=   0.000
       EPRNMR Input: 
       rho(0)=N f(grad)=N a(iso)=N a(dip)=N a(orb)=N sigma(nmr)=Y spin-spin(nmr)=all-N,DSO-N,PSO-N,FC-N,SD-N
   Nucleus:  10H 
       Hyperfine : Isotope=    1 I=   0.500 P= 533.552
       Quadrupole: Isotope=    2 I=   1.000 Q=   0.003
       Spin-Orbit: Zeff=   1.000
       Nuclear Spin-Spin: Gn=   0.000
       EPRNMR Input: 
       rho(0)=N f(grad)=N a(iso)=N a(dip)=N a(orb)=N sigma(nmr)=Y spin-spin(nmr)=all-N,DSO-N,PSO-N,FC-N,SD-N
   Nucleus:  11H 
       Hyperfine : Isotope=    1 I=   0.500 P= 533.552
       Quadrupole: Isotope=    2 I=   1.000 Q=   0.003
       Spin-Orbit: Zeff=   1.000
       Nuclear Spin-Spin: Gn=   0.000
       EPRNMR Input: 
       rho(0)=N f(grad)=N a(iso)=N a(dip)=N a(orb)=N sigma(nmr)=Y spin-spin(nmr)=all-N,DSO-N,PSO-N,FC-N,SD-N
   Nucleus:  12H 
       Hyperfine : Isotope=    1 I=   0.500 P= 533.552
       Quadrupole: Isotope=    2 I=   1.000 Q=   0.003
       Spin-Orbit: Zeff=   1.000
       Nuclear Spin-Spin: Gn=   0.000
       EPRNMR Input: 
       rho(0)=N f(grad)=N a(iso)=N a(dip)=N a(orb)=N sigma(nmr)=Y spin-spin(nmr)=all-N,DSO-N,PSO-N,FC-N,SD-N
   Nucleus:  13H 
       Hyperfine : Isotope=    1 I=   0.500 P= 533.552
       Quadrupole: Isotope=    2 I=   1.000 Q=   0.003
       Spin-Orbit: Zeff=   1.000
       Nuclear Spin-Spin: Gn=   0.000
       EPRNMR Input: 
       rho(0)=N f(grad)=N a(iso)=N a(dip)=N a(orb)=N sigma(nmr)=Y spin-spin(nmr)=all-N,DSO-N,PSO-N,FC-N,SD-N
   Nucleus:  14H 
       Hyperfine : Isotope=    1 I=   0.500 P= 533.552
       Quadrupole: Isotope=    2 I=   1.000 Q=   0.003
       Spin-Orbit: Zeff=   1.000
       Nuclear Spin-Spin: Gn=   0.000
       EPRNMR Input: 
       rho(0)=N f(grad)=N a(iso)=N a(dip)=N a(orb)=N sigma(nmr)=Y spin-spin(nmr)=all-N,DSO-N,PSO-N,FC-N,SD-N
   Nucleus:  15H 
       Hyperfine : Isotope=    1 I=   0.500 P= 533.552
       Quadrupole: Isotope=    2 I=   1.000 Q=   0.003
       Spin-Orbit: Zeff=   1.000
       Nuclear Spin-Spin: Gn=   0.000
       EPRNMR Input: 
       rho(0)=N f(grad)=N a(iso)=N a(dip)=N a(orb)=N sigma(nmr)=Y spin-spin(nmr)=all-N,DSO-N,PSO-N,FC-N,SD-N
   Nucleus:  16H 
       Hyperfine : Isotope=    1 I=   0.500 P= 533.552
       Quadrupole: Isotope=    2 I=   1.000 Q=   0.003
       Spin-Orbit: Zeff=   1.000
       Nuclear Spin-Spin: Gn=   0.000
       EPRNMR Input: 
       rho(0)=N f(grad)=N a(iso)=N a(dip)=N a(orb)=N sigma(nmr)=Y spin-spin(nmr)=all-N,DSO-N,PSO-N,FC-N,SD-N
Forming RHS of the CP-SCF equations         ... 
Calculating right hand sides for GIAO treatment        ... 
  Entering RightHandSide GIAO. ScalHFX=    0.0000 NeedHFX=0
     -> 1-electron GIAO integrals will be done analytically
     -> RI used in SCF. Same chosen for GIAO calculation.
     Making grid for GIAO integrations   ...

GRID GIAO
---------

General Integration Accuracy     IntAcc      ... 4.388
Radial Grid Type                 RadialGrid  ... OptM3 with GC (2021)
Angular Grid (max. ang.)         AngularGrid ... 4 (Lebedev-302)
Angular grid pruning method      GridPruning ... 4 (adaptive)
Weight generation scheme         WeightScheme... Becke
Basis function cutoff            BFCut       ... 1.0000e-10
Integration weight cutoff        WCut        ... 1.0000e-14
Angular grids for H and He will be reduced by one unit
Partially contracted basis set               ... off
Rotationally invariant grid construction     ... off

Total number of grid points                  ...    70076
Total number of batches                      ...     1104
Average number of points per batch           ...       63
Average number of grid points per atom       ...     4122

  One-electron GIAO integrals (SHARK)     ... done
  Calculating G(B)[P]                     ... (RI-J: SHARK-ok) (copy J to G-ok) => dG/dB done
  DFT XC-terms                            ... done
  Forming the GIAO-CPCM matrix            ... done (epsilon= 80.40 f(epsilon)= 0.987562)
  Extracting occupied and virtual blocks  ... 
  Operator  0  NO=  25 NV= 330 
  Transforming and RHS contribution       ... done
  Adding eps_i * S(B)_ai terms            ... done

  GIAO profiling information: 
    Total GIAO time               ...      24.7 sec
       GIAO 1-electron integrals  ...       0.1 sec (  0.3%)
       GIAO RI-J                  ...       3.7 sec ( 15.1%)
       GIAO XC-terms              ...      12.3 sec ( 49.7%)
       GIAO Solvent terms         ...       7.7 sec ( 31.0%)
       Right hand side assembly   ...       0.0 sec (  0.1%)

  GIAO right hand side done


Forming final perturbed densities           ... done
Transforming perturbed density to AO basis  ... done

Magnetic field perturbation calculated in 24.760 sec

---------------
CHEMICAL SHIFTS
---------------

Note: using conversion factor for au to ppm alpha^2/2 =   26.625677252 
GIAO: Analytic para- and diamagnetic shielding integrals (SHARK)       ...done
 --------------
 Nucleus   0Si:
 --------------

Diamagnetic contribution to the shielding tensor (ppm) : 
           879.811          0.003         0.043
            -0.009        879.792         0.035
            -0.007          0.020       879.852

Paramagnetic contribution to the shielding tensor (ppm): 
          -556.675         -0.140        -0.548
            -0.138       -556.524        -0.110
            -0.595         -0.334      -557.012

Total shielding tensor (ppm): 
           323.136         -0.137        -0.506
            -0.147        323.268        -0.075
            -0.602         -0.314       322.840


 Diagonalized sT*s matrix:
 
 sDSO           879.860          879.787          879.808  iso=     879.818
 sPSO          -557.509         -556.456         -556.247  iso=    -556.737
        ---------------  ---------------  ---------------
 Total          322.351          323.331          323.561  iso=     323.081

 --------------
 Nucleus   1C :
 --------------

Diamagnetic contribution to the shielding tensor (ppm) : 
           244.970         11.067         0.632
             2.319        254.556         0.706
             0.200          1.032       242.840

Paramagnetic contribution to the shielding tensor (ppm): 
           -60.897         -5.737        -0.240
             2.917        -69.702        -0.490
             0.289         -0.760       -63.756

Total shielding tensor (ppm): 
           184.073          5.331         0.392
             5.237        184.854         0.216
             0.489          0.272       179.084


 Diagonalized sT*s matrix:
 
 sDSO           242.861          242.664          256.841  iso=     247.455
 sPSO           -63.912          -63.385          -67.058  iso=     -64.785
        ---------------  ---------------  ---------------
 Total          178.949          179.279          189.783  iso=     182.670

 --------------
 Nucleus   2C :
 --------------

Diamagnetic contribution to the shielding tensor (ppm) : 
           252.362        -10.052        -0.331
            -8.926        236.270         0.021
            -0.436          0.206       231.894

Paramagnetic contribution to the shielding tensor (ppm): 
           -64.259          6.105        -0.069
             5.002        -55.431         0.153
             0.188         -0.009       -52.709

Total shielding tensor (ppm): 
           188.103         -3.946        -0.400
            -3.924        180.839         0.174
            -0.248          0.197       179.185


 Diagonalized sT*s matrix:
 
 sDSO           231.944          231.839          256.743  iso=     240.175
 sPSO           -52.849          -52.646          -66.904  iso=     -57.466
        ---------------  ---------------  ---------------
 Total          179.095          179.193          189.839  iso=     182.709

 --------------
 Nucleus   3C :
 --------------

Diamagnetic contribution to the shielding tensor (ppm) : 
           243.295         -0.403        -1.679
             2.801        245.764         6.826
             4.995          2.862       255.805

Paramagnetic contribution to the shielding tensor (ppm): 
           -63.950         -0.209         0.539
            -3.391        -63.947        -2.181
            -6.182          1.830       -68.944

Total shielding tensor (ppm): 
           179.345         -0.612        -1.140
            -0.589        181.817         4.645
            -1.187          4.693       186.861


 Diagonalized sT*s matrix:
 
 sDSO           244.172          243.975          256.717  iso=     248.288
 sPSO           -65.174          -64.758          -66.908  iso=     -65.614
        ---------------  ---------------  ---------------
 Total          178.998          179.216          189.809  iso=     182.674

 --------------
 Nucleus   4C :
 --------------

Diamagnetic contribution to the shielding tensor (ppm) : 
           243.948         -0.591         1.382
             3.754        247.909        -7.714
            -4.545         -4.185       254.056

Paramagnetic contribution to the shielding tensor (ppm): 
           -64.685         -0.221        -0.493
            -4.521        -64.657         2.573
             5.328         -0.958       -68.490

Total shielding tensor (ppm): 
           179.263         -0.812         0.889
            -0.766        183.252        -5.141
             0.783         -5.144       185.566


 Diagonalized sT*s matrix:
 
 sDSO           244.604          244.485          256.824  iso=     248.638
 sPSO           -65.559          -65.254          -67.020  iso=     -65.944
        ---------------  ---------------  ---------------
 Total          179.045          179.231          189.805  iso=     182.694

 --------------
 Nucleus   5H :
 --------------

Diamagnetic contribution to the shielding tensor (ppm) : 
            24.710          3.387        -0.428
            -1.459         36.625        -6.648
             1.012         -7.851        31.550

Paramagnetic contribution to the shielding tensor (ppm): 
             3.864         -1.928         0.082
             2.628         -3.006         1.814
            -1.061          3.360         0.642

Total shielding tensor (ppm): 
            28.574          1.458        -0.346
             1.170         33.619        -4.833
            -0.049         -4.491        32.192


 Diagonalized sT*s matrix:
 
 sDSO            25.144           26.197           41.543  iso=      30.961
 sPSO             2.457            2.827           -3.783  iso=       0.500
        ---------------  ---------------  ---------------
 Total           27.600           29.024           37.760  iso=      31.461

 --------------
 Nucleus   6H :
 --------------

Diamagnetic contribution to the shielding tensor (ppm) : 
            39.797          2.352         0.072
            -2.265         32.447         0.200
            -0.090          0.268        29.057

Paramagnetic contribution to the shielding tensor (ppm): 
            -2.179         -3.563        -0.078
             1.566         -3.314        -0.104
             0.119         -0.183        -1.443

Total shielding tensor (ppm): 
            37.619         -1.212        -0.006
            -0.699         29.133         0.096
             0.029          0.085        27.615


 Diagonalized sT*s matrix:
 
 sDSO            29.042           32.568           39.692  iso=      33.767
 sPSO            -1.433           -3.535           -1.967  iso=      -2.312
        ---------------  ---------------  ---------------
 Total           27.609           29.032           37.725  iso=      31.455

 --------------
 Nucleus   7H :
 --------------

Diamagnetic contribution to the shielding tensor (ppm) : 
            24.860          3.201         0.685
            -1.425         34.683         6.874
            -1.342          8.437        33.640

Paramagnetic contribution to the shielding tensor (ppm): 
             3.704         -1.881        -0.207
             2.513         -2.422        -2.035
             1.499         -3.924        -0.125

Total shielding tensor (ppm): 
            28.564          1.319         0.478
             1.088         32.261         4.839
             0.156          4.514        33.515


 Diagonalized sT*s matrix:
 
 sDSO            25.262           26.351           41.569  iso=      31.061
 sPSO             2.340            2.664           -3.846  iso=       0.386
        ---------------  ---------------  ---------------
 Total           27.602           29.015           37.723  iso=      31.447

 --------------
 Nucleus   8H :
 --------------

Diamagnetic contribution to the shielding tensor (ppm) : 
            27.933         -5.995         2.829
            -7.371         28.929        -6.122
             5.251         -7.424        26.734

Paramagnetic contribution to the shielding tensor (ppm): 
             2.195          3.298        -0.792
             4.965          3.172         1.702
            -3.596          3.178         5.394

Total shielding tensor (ppm): 
            30.128         -2.697         2.037
            -2.407         32.101        -4.421
             1.655         -4.246        32.128


 Diagonalized sT*s matrix:
 
 sDSO            20.492           24.103           39.000  iso=      27.865
 sPSO             7.111            4.925           -1.276  iso=       3.587
        ---------------  ---------------  ---------------
 Total           27.603           29.028           37.724  iso=      31.452

 --------------
 Nucleus   9H :
 --------------

Diamagnetic contribution to the shielding tensor (ppm) : 
            28.363         -5.652        -3.563
            -6.549         26.708         5.627
            -6.432          7.286        28.880

Paramagnetic contribution to the shielding tensor (ppm): 
             1.863          3.209         0.967
             4.329          3.880        -1.538
             4.279         -3.386         4.662

Total shielding tensor (ppm): 
            30.226         -2.442        -2.596
            -2.220         30.588         4.088
            -2.154          3.900        33.543


 Diagonalized sT*s matrix:
 
 sDSO            20.641           24.403           38.909  iso=      27.984
 sPSO             6.947            4.609           -1.150  iso=       3.468
        ---------------  ---------------  ---------------
 Total           27.587           29.011           37.759  iso=      31.452

 --------------
 Nucleus  10H :
 --------------

Diamagnetic contribution to the shielding tensor (ppm) : 
            38.417          1.986         0.626
             6.095         25.298         0.435
             0.758          0.475        21.123

Paramagnetic contribution to the shielding tensor (ppm): 
            -2.817          1.991        -0.162
            -2.630          5.813        -0.041
            -0.351         -0.074         6.519

Total shielding tensor (ppm): 
            35.600          3.977         0.465
             3.465         31.111         0.394
             0.407          0.401        27.642


 Diagonalized sT*s matrix:
 
 sDSO            21.072           25.057           38.709  iso=      28.279
 sPSO             6.525            3.965           -0.975  iso=       3.172
        ---------------  ---------------  ---------------
 Total           27.597           29.022           37.733  iso=      31.451

 --------------
 Nucleus  11H :
 --------------

Diamagnetic contribution to the shielding tensor (ppm) : 
            25.633         -0.527         0.544
            -0.465         29.015        -4.202
             5.197         -6.742        39.319

Paramagnetic contribution to the shielding tensor (ppm): 
             2.055          0.084        -0.188
             0.007          1.160         1.458
            -4.732          3.488        -2.820

Total shielding tensor (ppm): 
            27.688         -0.443         0.356
            -0.457         30.176        -2.744
             0.465         -3.254        36.499


 Diagonalized sT*s matrix:
 
 sDSO            25.651           26.376           41.940  iso=      31.322
 sPSO             1.956            2.655           -4.215  iso=       0.132
        ---------------  ---------------  ---------------
 Total           27.607           29.031           37.725  iso=      31.454

 --------------
 Nucleus  12H :
 --------------

Diamagnetic contribution to the shielding tensor (ppm) : 
            32.238          5.379         1.855
             9.313         33.299         4.309
             4.612          2.323        29.657

Paramagnetic contribution to the shielding tensor (ppm): 
            -1.175         -1.269        -0.909
            -4.957          0.404        -1.890
            -3.331          0.421        -0.048

Total shielding tensor (ppm): 
            31.063          4.110         0.945
             4.356         33.703         2.419
             1.280          2.743        29.609


 Diagonalized sT*s matrix:
 
 sDSO            26.278           27.324           41.592  iso=      31.731
 sPSO             1.332            1.697           -3.848  iso=      -0.273
        ---------------  ---------------  ---------------
 Total           27.610           29.021           37.744  iso=      31.458

 --------------
 Nucleus  13H :
 --------------

Diamagnetic contribution to the shielding tensor (ppm) : 
            36.988         -4.427        -3.273
            -3.174         32.207         3.258
             0.022          1.352        33.194

Paramagnetic contribution to the shielding tensor (ppm): 
            -2.354          0.557         1.632
            -0.910         -1.967        -1.559
            -2.097          0.533        -3.700

Total shielding tensor (ppm): 
            34.634         -3.870        -1.640
            -4.084         30.241         1.699
            -2.075          1.885        29.495


 Diagonalized sT*s matrix:
 
 sDSO            29.606           32.772           40.011  iso=      34.130
 sPSO            -2.006           -3.750           -2.264  iso=      -2.673
        ---------------  ---------------  ---------------
 Total           27.600           29.021           37.748  iso=      31.456

 --------------
 Nucleus  14H :
 --------------

Diamagnetic contribution to the shielding tensor (ppm) : 
            26.152         -0.535        -0.860
             0.277         28.074         2.507
            -5.361          4.947        40.552

Paramagnetic contribution to the shielding tensor (ppm): 
             1.558          0.098         0.276
            -0.701          1.344        -0.827
             4.674         -2.748        -3.309

Total shielding tensor (ppm): 
            27.709         -0.437        -0.584
            -0.425         29.418         1.679
            -0.687          2.200        37.242


 Diagonalized sT*s matrix:
 
 sDSO            26.087           26.767           41.923  iso=      31.592
 sPSO             1.516            2.252           -4.176  iso=      -0.136
        ---------------  ---------------  ---------------
 Total           27.603           29.019           37.748  iso=      31.456

 --------------
 Nucleus  15H :
 --------------

Diamagnetic contribution to the shielding tensor (ppm) : 
            37.326         -4.717         2.375
            -2.988         33.034        -3.078
            -0.417         -1.463        32.520

Paramagnetic contribution to the shielding tensor (ppm): 
            -2.642          0.738        -1.247
            -1.288         -2.360         1.520
             1.928         -0.260        -3.503

Total shielding tensor (ppm): 
            34.684         -3.979         1.128
            -4.276         30.675        -1.557
             1.512         -1.724        29.018


 Diagonalized sT*s matrix:
 
 sDSO            29.842           32.924           40.115  iso=      34.294
 sPSO            -2.229           -3.884           -2.390  iso=      -2.835
        ---------------  ---------------  ---------------
 Total           27.612           29.039           37.725  iso=      31.459

 --------------
 Nucleus  16H :
 --------------

Diamagnetic contribution to the shielding tensor (ppm) : 
            32.413          5.570        -0.900
            10.007         34.558        -3.212
            -3.142         -1.620        28.669

Paramagnetic contribution to the shielding tensor (ppm): 
            -1.468         -1.352         0.606
            -5.514         -0.101         1.559
             2.563         -0.372         0.278

Total shielding tensor (ppm): 
            30.945          4.217        -0.293
             4.493         34.456        -1.653
            -0.579         -1.992        28.947


 Diagonalized sT*s matrix:
 
 sDSO            26.457           27.396           41.788  iso=      31.880
 sPSO             1.133            1.615           -4.040  iso=      -0.431
        ---------------  ---------------  ---------------
 Total           27.590           29.011           37.748  iso=      31.449



--------------------------------
CHEMICAL SHIELDING SUMMARY (ppm)
--------------------------------


  Nucleus  Element    Isotropic     Anisotropy
  -------  -------  ------------   ------------
      0       Si         323.081          0.720 
      1       C          182.670         10.669 
      2       C          182.709         10.695 
      3       C          182.674         10.702 
      4       C          182.694         10.666 
      5       H           31.461          9.448 
      6       H           31.455          9.404 
      7       H           31.447          9.415 
      8       H           31.452          9.408 
      9       H           31.452          9.460 
     10       H           31.451          9.424 
     11       H           31.454          9.406 
     12       H           31.458          9.428 
     13       H           31.456          9.437 
     14       H           31.456          9.437 
     15       H           31.459          9.399 
     16       H           31.449          9.447 



Maximum memory used throughout the entire EPRNMR-calculation: 123.3 MB

Timings for individual modules:

Sum of individual times         ...       77.716 sec (=   1.295 min)
GTO integral calculation        ...        0.972 sec (=   0.016 min)   1.3 %
SCF iterations                  ...       49.400 sec (=   0.823 min)  63.6 %
EPR/NMR calculation             ...       27.344 sec (=   0.456 min)  35.2 %
                             ****ORCA TERMINATED NORMALLY****
TOTAL RUN TIME: 0 days 0 hours 1 minutes 17 seconds 940 msec
