
                                 *****************
                                 * O   R   C   A *
                                 *****************

                                            #,                                       
                                            ###                                      
                                            ####                                     
                                            #####                                    
                                            ######                                   
                                           ########,                                 
                                     ,,################,,,,,                         
                               ,,#################################,,                 
                          ,,##########################################,,             
                       ,#########################################, ''#####,          
                    ,#############################################,,   '####,        
                  ,##################################################,,,,####,       
                ,###########''''           ''''###############################       
              ,#####''   ,,,,##########,,,,          '''####'''          '####       
            ,##' ,,,,###########################,,,                        '##       
           ' ,,###''''                  '''############,,,                           
         ,,##''                                '''############,,,,        ,,,,,,###''
      ,#''                                            '''#######################'''  
     '                                                          ''''####''''         
             ,#######,   #######,   ,#######,      ##                                
            ,#'     '#,  ##    ##  ,#'     '#,    #''#        ######   ,####,        
            ##       ##  ##   ,#'  ##            #'  '#       #        #'  '#        
            ##       ##  #######   ##           ,######,      #####,   #    #        
            '#,     ,#'  ##    ##  '#,     ,#' ,#      #,         ##   #,  ,#        
             '#######'   ##     ##  '#######'  #'      '#     #####' # '####'        



                  #######################################################
                  #                        -***-                        #
                  #          Department of theory and spectroscopy      #
                  #    Directorship and core code : Frank Neese         #
                  #        Max Planck Institute fuer Kohlenforschung    #
                  #                Kaiser Wilhelm Platz 1               #
                  #                 D-45470 Muelheim/Ruhr               #
                  #                      Germany                        #
                  #                                                     #
                  #                  All rights reserved                #
                  #                        -***-                        #
                  #######################################################


                         Program Version 5.0.2 -  RELEASE  -


 With contributions from (in alphabetic order):
   Daniel Aravena         : Magnetic Suceptibility
   Michael Atanasov       : Ab Initio Ligand Field Theory (pilot matlab implementation)
   Alexander A. Auer      : GIAO ZORA, VPT2 properties, NMR spectrum
   Ute Becker             : Parallelization
   Giovanni Bistoni       : ED, misc. LED, open-shell LED, HFLD
   Martin Brehm           : Molecular dynamics
   Dmytro Bykov           : SCF Hessian
   Vijay G. Chilkuri      : MRCI spin determinant printing, contributions to CSF-ICE
   Dipayan Datta          : RHF DLPNO-CCSD density
   Achintya Kumar Dutta   : EOM-CC, STEOM-CC
   Dmitry Ganyushin       : Spin-Orbit,Spin-Spin,Magnetic field MRCI
   Miquel Garcia          : C-PCM and meta-GGA Hessian, CC/C-PCM, Gaussian charge scheme
   Yang Guo               : DLPNO-NEVPT2, F12-NEVPT2, CIM, IAO-localization
   Andreas Hansen         : Spin unrestricted coupled pair/coupled cluster methods
   Benjamin Helmich-Paris : MC-RPA, TRAH-SCF, COSX integrals
   Lee Huntington         : MR-EOM, pCC
   Robert Izsak           : Overlap fitted RIJCOSX, COSX-SCS-MP3, EOM
   Marcus Kettner         : VPT2
   Christian Kollmar      : KDIIS, OOCD, Brueckner-CCSD(T), CCSD density, CASPT2, CASPT2-K
   Simone Kossmann        : Meta GGA functionals, TD-DFT gradient, OOMP2, MP2 Hessian
   Martin Krupicka        : Initial AUTO-CI
   Lucas Lang             : DCDCAS
   Marvin Lechner         : AUTO-CI (C++ implementation), FIC-MRCC
   Dagmar Lenk            : GEPOL surface, SMD
   Dimitrios Liakos       : Extrapolation schemes; Compound Job, initial MDCI parallelization
   Dimitrios Manganas     : Further ROCIS development; embedding schemes
   Dimitrios Pantazis     : SARC Basis sets
   Anastasios Papadopoulos: AUTO-CI, single reference methods and gradients
   Taras Petrenko         : DFT Hessian,TD-DFT gradient, ASA, ECA, R-Raman, ABS, FL, XAS/XES, NRVS
   Peter Pinski           : DLPNO-MP2, DLPNO-MP2 Gradient
   Christoph Reimann      : Effective Core Potentials
   Marius Retegan         : Local ZFS, SOC
   Christoph Riplinger    : Optimizer, TS searches, QM/MM, DLPNO-CCSD(T), (RO)-DLPNO pert. Triples
   Tobias Risthaus        : Range-separated hybrids, TD-DFT gradient, RPA, STAB
   Michael Roemelt        : Original ROCIS implementation
   Masaaki Saitow         : Open-shell DLPNO-CCSD energy and density
   Barbara Sandhoefer     : DKH picture change effects
   Avijit Sen             : IP-ROCIS
   Kantharuban Sivalingam : CASSCF convergence, NEVPT2, FIC-MRCI
   Bernardo de Souza      : ESD, SOC TD-DFT
   Georgi Stoychev        : AutoAux, RI-MP2 NMR, DLPNO-MP2 response
   Willem Van den Heuvel  : Paramagnetic NMR
   Boris Wezisla          : Elementary symmetry handling
   Frank Wennmohs         : Technical directorship


 We gratefully acknowledge several colleagues who have allowed us to
 interface, adapt or use parts of their codes:
   Stefan Grimme, W. Hujo, H. Kruse, P. Pracht,  : VdW corrections, initial TS optimization,
                  C. Bannwarth, S. Ehlert          DFT functionals, gCP, sTDA/sTD-DF
   Ed Valeev, F. Pavosevic, A. Kumar             : LibInt (2-el integral package), F12 methods
   Garnet Chan, S. Sharma, J. Yang, R. Olivares  : DMRG
   Ulf Ekstrom                                   : XCFun DFT Library
   Mihaly Kallay                                 : mrcc  (arbitrary order and MRCC methods)
   Jiri Pittner, Ondrej Demel                    : Mk-CCSD
   Frank Weinhold                                : gennbo (NPA and NBO analysis)
   Christopher J. Cramer and Donald G. Truhlar   : smd solvation model
   Lars Goerigk                                  : TD-DFT with DH, B97 family of functionals
   V. Asgeirsson, H. Jonsson                     : NEB implementation
   FAccTs GmbH                                   : IRC, NEB, NEB-TS, DLPNO-Multilevel, CI-OPT
                                                   MM, QMMM, 2- and 3-layer-ONIOM, Crystal-QMMM,
                                                   LR-CPCM, SF, NACMEs, symmetry and pop. for TD-DFT,
                                                   nearIR, NL-DFT gradient (VV10), updates on ESD,
                                                   ML-optimized integration grids
   S Lehtola, MJT Oliveira, MAL Marques          : LibXC Library
   Liviu Ungur et al                             : ANISO software


 Your calculation uses the libint2 library for the computation of 2-el integrals
 For citations please refer to: http://libint.valeyev.net

 Your ORCA version has been built with support for libXC version: 5.1.0
 For citations please refer to: https://tddft.org/programs/libxc/

 This ORCA versions uses:
   CBLAS   interface :  Fast vector & matrix operations
   LAPACKE interface :  Fast linear algebra routines
   SCALAPACK package :  Parallel linear algebra routines
   Shared memory     :  Shared parallel matrices
   BLAS/LAPACK       :  OpenBLAS 0.3.15  USE64BITINT DYNAMIC_ARCH NO_AFFINITY Haswell SINGLE_THREADED
        Core in use  :  Haswell
   Copyright (c) 2011-2014, The OpenBLAS Project




***************************************
The coordinates will be read from file: OPT_G.xyz
***************************************



Information: The global flag for chemical shieldings has been found
             ==>> will calculate the chemical shieldings for all atoms in the system

================================================================================

----- Orbital basis set information -----
Your calculation utilizes the basis: pcSseg-2
   F. Jensen, J. Chem. Theory Comput. 11, 132 (2015).

----- AuxJ basis set information -----
Your calculation utilizes the auxiliary basis: def2/J
   F. Weigend, Phys. Chem. Chem. Phys. 8, 1057 (2006).

================================================================================
                                        WARNINGS
                       Please study these warnings very carefully!
================================================================================


INFO   : the flag for use of the SHARK integral package has been found!

================================================================================
                                       INPUT FILE
================================================================================
NAME = G.inp
|  1> !PBE RI pcSseg-2 def2/J NMR
|  2> 
|  3> *xyzfile 0 1 OPT_G.xyz
|  4> 
|  5> 
|  6>                          ****END OF INPUT****
================================================================================

                       ****************************
                       * Single Point Calculation *
                       ****************************

---------------------------------
CARTESIAN COORDINATES (ANGSTROEM)
---------------------------------
  C     -7.366053    1.339991   -7.001616
  C     -7.417624   -0.060481   -6.418278
  O     -6.906056    2.265658   -6.046950
  O     -6.159677   -0.441781   -5.916614
  C     -5.699676    0.483884   -4.961949
  C     -5.648109    1.884359   -5.545282
  H     -8.361798    1.660335   -7.315122
  H     -6.716896    1.343721   -7.890606
  H     -7.696626   -0.784434   -7.186653
  H     -8.180324   -0.101460   -5.625725
  H     -4.703926    0.163545   -4.648452
  H     -6.348826    0.480149   -4.072954
  H     -4.885405    1.925347   -6.337831
  H     -5.369114    2.608306   -4.776899

----------------------------
CARTESIAN COORDINATES (A.U.)
----------------------------
  NO LB      ZA    FRAG     MASS         X           Y           Z
   0 C     6.0000    0    12.011  -13.919822    2.532217  -13.231136
   1 C     6.0000    0    12.011  -14.017279   -0.114293  -12.128788
   2 O     8.0000    0    15.999  -13.050554    4.281472  -11.427079
   3 O     8.0000    0    15.999  -11.640102   -0.834844  -11.180780
   4 C     6.0000    0    12.011  -10.770827    0.914408   -9.376725
   5 C     6.0000    0    12.011  -10.673379    3.560923  -10.479064
   6 H     1.0000    0     1.008  -15.801508    3.137578  -13.823578
   7 H     1.0000    0     1.008  -12.693095    2.539265  -14.911084
   8 H     1.0000    0     1.008  -14.544516   -1.482365  -13.580807
   9 H     1.0000    0     1.008  -15.458572   -0.191732  -10.631079
  10 H     1.0000    0     1.008   -8.889132    0.309055   -8.784301
  11 H     1.0000    0     1.008  -11.997542    0.907351   -7.696768
  12 H     1.0000    0     1.008   -9.232078    3.638379  -11.976764
  13 H     1.0000    0     1.008  -10.146154    4.928984   -9.027030

--------------------------------
INTERNAL COORDINATES (ANGSTROEM)
--------------------------------
 C      0   0   0     0.000000000000     0.00000000     0.00000000
 C      1   0   0     1.517981109288     0.00000000     0.00000000
 O      1   2   0     1.407068797883   110.93567303     0.00000000
 O      2   1   3     1.406943117108   110.89638959   303.64051398
 C      4   2   1     1.407067802761   110.85046461    56.31050388
 C      3   1   2     1.406942715191   110.85044160    56.33299414
 H      1   2   3     1.091977744086   110.48729272   240.93972034
 H      1   2   3     1.100781874182   109.48192719   122.42215383
 H      2   1   3     1.091947771928   110.48354295   184.62511077
 H      2   1   3     1.100695473779   109.54779601    66.06538500
 H      5   4   2     1.091977900642   107.45204918   182.79733834
 H      5   4   2     1.100781703336   110.66592801    65.39917866
 H      6   3   1     1.100695411391   110.65331945    65.47003901
 H      6   3   1     1.091947971858   107.43815856   182.85664555

---------------------------
INTERNAL COORDINATES (A.U.)
---------------------------
 C      0   0   0     0.000000000000     0.00000000     0.00000000
 C      1   0   0     2.868568573019     0.00000000     0.00000000
 O      1   2   0     2.658974679584   110.93567303     0.00000000
 O      2   1   3     2.658737177339   110.89638959   303.64051398
 C      4   2   1     2.658972799077   110.85046461    56.31050388
 C      3   1   2     2.658736417827   110.85044160    56.33299414
 H      1   2   3     2.063538880660   110.48729272   240.93972034
 H      1   2   3     2.080176275389   109.48192719   122.42215383
 H      2   1   3     2.063482241490   110.48354295   184.62511077
 H      2   1   3     2.080013002289   109.54779601    66.06538500
 H      5   4   2     2.063539176507   107.45204918   182.79733834
 H      5   4   2     2.080175952536   110.66592801    65.39917866
 H      6   3   1     2.080012884392   110.65331945    65.47003901
 H      6   3   1     2.063482619302   107.43815856   182.85664555

---------------------
BASIS SET INFORMATION
---------------------
There are 3 groups of distinct atoms

 Group   1 Type C   : 11s7p2d1f contracted to 4s5p2d1f pattern {7211/31111/11/1}
 Group   2 Type O   : 11s7p2d1f contracted to 4s5p2d1f pattern {7211/31111/11/1}
 Group   3 Type H   : 6s3p1d contracted to 3s2p1d pattern {411/21/1}

Atom   0C    basis set group =>   1
Atom   1C    basis set group =>   1
Atom   2O    basis set group =>   2
Atom   3O    basis set group =>   2
Atom   4C    basis set group =>   1
Atom   5C    basis set group =>   1
Atom   6H    basis set group =>   3
Atom   7H    basis set group =>   3
Atom   8H    basis set group =>   3
Atom   9H    basis set group =>   3
Atom  10H    basis set group =>   3
Atom  11H    basis set group =>   3
Atom  12H    basis set group =>   3
Atom  13H    basis set group =>   3
---------------------------------
AUXILIARY/J BASIS SET INFORMATION
---------------------------------
There are 3 groups of distinct atoms

 Group   1 Type C   : 12s5p4d2f1g contracted to 6s4p3d1f1g pattern {711111/2111/211/2/1}
 Group   2 Type O   : 12s5p4d2f1g contracted to 6s4p3d1f1g pattern {711111/2111/211/2/1}
 Group   3 Type H   : 5s2p1d contracted to 3s1p1d pattern {311/2/1}

Atom   0C    basis set group =>   1
Atom   1C    basis set group =>   1
Atom   2O    basis set group =>   2
Atom   3O    basis set group =>   2
Atom   4C    basis set group =>   1
Atom   5C    basis set group =>   1
Atom   6H    basis set group =>   3
Atom   7H    basis set group =>   3
Atom   8H    basis set group =>   3
Atom   9H    basis set group =>   3
Atom  10H    basis set group =>   3
Atom  11H    basis set group =>   3
Atom  12H    basis set group =>   3
Atom  13H    basis set group =>   3
------------------------------------------------------------------------------
                           ORCA GTO INTEGRAL CALCULATION
                           -- RI-GTO INTEGRALS CHOSEN --
------------------------------------------------------------------------------
------------------------------------------------------------------------------
                   ___                                                        
                  /   \      - P O W E R E D   B Y -                         
                 /     \                                                     
                 |  |  |   _    _      __       _____    __    __             
                 |  |  |  | |  | |    /  \     |  _  \  |  |  /  |          
                  \  \/   | |  | |   /    \    | | | |  |  | /  /          
                 / \  \   | |__| |  /  /\  \   | |_| |  |  |/  /          
                |  |  |   |  __  | /  /__\  \  |    /   |      \           
                |  |  |   | |  | | |   __   |  |    \   |  |\   \          
                \     /   | |  | | |  |  |  |  | |\  \  |  | \   \       
                 \___/    |_|  |_| |__|  |__|  |_| \__\ |__|  \__/        
                                                                              
                      - O R C A' S   B I G   F R I E N D -                    
                                      &                                       
                       - I N T E G R A L  F E E D E R -                       
                                                                              
 v1 FN, 2020, v2 2021                                                         
------------------------------------------------------------------------------


Reading SHARK input file G.SHARKINP.tmp ... ok
----------------------
SHARK INTEGRAL PACKAGE
----------------------

Number of atoms                             ...     14
Number of basis functions                   ...    328
Number of shells                            ...    120
Maximum angular momentum                    ...      3
Integral batch strategy                     ... SHARK/LIBINT Hybrid
RI-J (if used) integral strategy            ... SPLIT-RIJ (Revised 2003 algorithm where possible)
Printlevel                                  ...      1
Contraction scheme used                     ... SEGMENTED contraction
Coulomb Range Separation                    ... NOT USED
Exchange Range Separation                   ... NOT USED
Finite Nucleus Model                        ... NOT USED
Auxiliary Coulomb fitting basis             ... AVAILABLE
   # of basis functions in Aux-J            ...    382
   # of shells in Aux-J                     ...    130
   Maximum angular momentum in Aux-J        ...      4
Auxiliary J/K fitting basis                 ... NOT available
Auxiliary Correlation fitting basis         ... NOT available
Auxiliary 'external' fitting basis          ... NOT available
Integral threshold                          ...     1.000000e-10
Primitive cut-off                           ...     1.000000e-11
Primitive pair pre-selection threshold      ...     1.000000e-11

Calculating pre-screening integrals         ... done (  0.1 sec) Dimension = 120
Organizing shell pair data                  ... done (  0.1 sec)
Shell pair information
Total number of shell pairs                 ...      7260
Shell pairs after pre-screening             ...      6925
Total number of primitive shell pairs       ...     21527
Primitive shell pairs kept                  ...     15515
          la=0 lb=0:   1155 shell pairs
          la=1 lb=0:   2120 shell pairs
          la=1 lb=1:    971 shell pairs
          la=2 lb=0:    938 shell pairs
          la=2 lb=1:    844 shell pairs
          la=2 lb=2:    192 shell pairs
          la=3 lb=0:    288 shell pairs
          la=3 lb=1:    276 shell pairs
          la=3 lb=2:    120 shell pairs
          la=3 lb=3:     21 shell pairs

Calculating one electron integrals          ... done (  0.1 sec)
Calculating RI/J V-Matrix + Cholesky decomp.... done (  0.0 sec)
Calculating Nuclear repulsion               ... done (  0.0 sec) ENN=    265.688537005331 Eh

SHARK setup successfully completed in   0.5 seconds

Maximum memory used throughout the entire GTOINT-calculation: 101.6 MB
-------------------------------------------------------------------------------
                                 ORCA SCF
-------------------------------------------------------------------------------

------------
SCF SETTINGS
------------
Hamiltonian:
 Density Functional     Method          .... DFT(GTOs)
 Exchange Functional    Exchange        .... PBE
   PBE kappa parameter   XKappa         ....  0.804000
   PBE mue parameter    XMuePBE         ....  0.219520
 Correlation Functional Correlation     .... PBE
   PBE beta parameter  CBetaPBE         ....  0.066725
 LDA part of GGA corr.  LDAOpt          .... PW91-LDA
 Gradients option       PostSCFGGA      .... off
   Density functional embedding theory  .... OFF
   NL short-range parameter             ....  6.400000
 RI-approximation to the Coulomb term is turned on
   Number of AuxJ basis functions       .... 382


General Settings:
 Integral files         IntName         .... G
 Hartree-Fock type      HFTyp           .... RHF
 Total Charge           Charge          ....    0
 Multiplicity           Mult            ....    1
 Number of Electrons    NEL             ....   48
 Basis Dimension        Dim             ....  328
 Nuclear Repulsion      ENuc            ....    265.6885370053 Eh

Convergence Acceleration:
 DIIS                   CNVDIIS         .... on
   Start iteration      DIISMaxIt       ....    12
   Startup error        DIISStart       ....  0.200000
   # of expansion vecs  DIISMaxEq       ....     5
   Bias factor          DIISBfac        ....   1.050
   Max. coefficient     DIISMaxC        ....  10.000
 Trust-Rad. Augm. Hess. CNVTRAH         .... auto
   Auto Start mean grad. ratio tolernc. ....  1.125000
   Auto Start start iteration           ....    20
   Auto Start num. interpolation iter.  ....    10
   Max. Number of Micro iterations      ....    16
   Max. Number of Macro iterations      .... Maxiter - #DIIS iter
   Number of Davidson start vectors     ....     2
   Converg. threshold I  (grad. norm)   ....   5.000e-05
   Converg. threshold II (energy diff.) ....   1.000e-06
   Grad. Scal. Fac. for Micro threshold ....   0.100
   Minimum threshold for Micro iter.    ....   0.010
   NR start threshold (gradient norm)   ....   0.001
   Initial trust radius                 ....   0.400
   Minimum AH scaling param. (alpha)    ....   1.000
   Maximum AH scaling param. (alpha)    .... 1000.000
   Orbital update algorithm             .... Taylor
   White noise on init. David. guess    .... on
   Maximum white noise                  ....   0.010
   Quad. conv. algorithm                .... NR
 SOSCF                  CNVSOSCF        .... on
   Start iteration      SOSCFMaxIt      ....   150
   Startup grad/error   SOSCFStart      ....  0.003300
 Level Shifting         CNVShift        .... on
   Level shift para.    LevelShift      ....    0.2500
   Turn off err/grad.   ShiftErr        ....    0.0010
 Zerner damping         CNVZerner       .... off
 Static damping         CNVDamp         .... on
   Fraction old density DampFac         ....    0.7000
   Max. Damping (<1)    DampMax         ....    0.9800
   Min. Damping (>=0)   DampMin         ....    0.0000
   Turn off err/grad.   DampErr         ....    0.1000
 Fernandez-Rico         CNVRico         .... off

SCF Procedure:
 Maximum # iterations   MaxIter         ....   125
 SCF integral mode      SCFMode         .... Direct
   Integral package                     .... SHARK and LIBINT hybrid scheme
 Reset frequency        DirectResetFreq ....    20
 Integral Threshold     Thresh          ....  1.000e-10 Eh
 Primitive CutOff       TCut            ....  1.000e-11 Eh

Convergence Tolerance:
 Convergence Check Mode ConvCheckMode   .... Total+1el-Energy
 Convergence forced     ConvForced      .... 0
 Energy Change          TolE            ....  1.000e-06 Eh
 1-El. energy change                    ....  1.000e-03 Eh
 Orbital Gradient       TolG            ....  5.000e-05
 Orbital Rotation angle TolX            ....  5.000e-05
 DIIS Error             TolErr          ....  1.000e-06


Diagonalization of the overlap matrix:
Smallest eigenvalue                        ... 1.271e-04
Time for diagonalization                   ...    0.046 sec
Threshold for overlap eigenvalues          ... 1.000e-08
Number of eigenvalues below threshold      ... 0
Time for construction of square roots      ...    0.013 sec
Total time needed                          ...    0.060 sec

Time for model grid setup =    0.356 sec

------------------------------
INITIAL GUESS: MODEL POTENTIAL
------------------------------
Loading Hartree-Fock densities                     ... done
Calculating cut-offs                               ... done
Initializing the effective Hamiltonian             ... done
Setting up the integral package (SHARK)            ... done
Starting the Coulomb interaction                   ... done (   0.5 sec)
Reading the grid                                   ... done
Mapping shells                                     ... done
Starting the XC term evaluation                    ... done (   0.7 sec)
  promolecular density results
     # of electrons  =     48.000532079
     EX              =    -39.159172481
     EC              =     -1.607936268
     EX+EC           =    -40.767108749
Transforming the Hamiltonian                       ... done (   0.0 sec)
Diagonalizing the Hamiltonian                      ... done (   0.0 sec)
Back transforming the eigenvectors                 ... done (   0.0 sec)
Now organizing SCF variables                       ... done
                      ------------------
                      INITIAL GUESS DONE (   1.6 sec)
                      ------------------
-------------------
DFT GRID GENERATION
-------------------

General Integration Accuracy     IntAcc      ... 4.388
Radial Grid Type                 RadialGrid  ... OptM3 with GC (2021)
Angular Grid (max. ang.)         AngularGrid ... 4 (Lebedev-302)
Angular grid pruning method      GridPruning ... 4 (adaptive)
Weight generation scheme         WeightScheme... Becke
Basis function cutoff            BFCut       ... 1.0000e-10
Integration weight cutoff        WCut        ... 1.0000e-14
Angular grids for H and He will be reduced by one unit
Partially contracted basis set               ... off
Rotationally invariant grid construction     ... off

Total number of grid points                  ...    62514
Total number of batches                      ...      982
Average number of points per batch           ...       63
Average number of grid points per atom       ...     4465
Time for grid setup =    1.205 sec

--------------
SCF ITERATIONS
--------------
ITER       Energy         Delta-E        Max-DP      RMS-DP      [F,P]     Damp
               ***  Starting incremental Fock matrix formation  ***
  0   -307.2903056492   0.000000000000 0.02324574  0.00072450  0.1685378 0.7000
  1   -307.3497902712  -0.059484621971 0.01762500  0.00056735  0.0554358 0.7000
                               ***Turning on DIIS***
  2   -307.3702832974  -0.020493026238 0.02760971  0.00090430  0.0185411 0.0000
  3   -307.4046396433  -0.034356345909 0.01420689  0.00043704  0.0265660 0.0000
  4   -307.4120725197  -0.007432876394 0.00367763  0.00011935  0.0115506 0.0000
  5   -307.4127746804  -0.000702160717 0.00136571  0.00004702  0.0033184 0.0000
                      *** Initiating the SOSCF procedure ***
                           *** Shutting down DIIS ***
                      *** Re-Reading the Fockian *** 
                      *** Removing any level shift *** 
ITER      Energy       Delta-E        Grad      Rot      Max-DP    RMS-DP
  6   -307.41282645  -0.0000517666  0.000443  0.000443  0.001314  0.000042
               *** Restarting incremental Fock matrix formation ***
  7   -307.41283186  -0.0000054147  0.000081  0.000278  0.000284  0.000008
  8   -307.41283148   0.0000003863  0.000127  0.000142  0.000150  0.000004
                 **** Energy Check signals convergence ****
              ***Rediagonalizing the Fockian in SOSCF/NRSCF***

               *****************************************************
               *                     SUCCESS                       *
               *           SCF CONVERGED AFTER   9 CYCLES          *
               *****************************************************


----------------
TOTAL SCF ENERGY
----------------

Total Energy       :         -307.41283223 Eh           -8365.12844 eV

Components:
Nuclear Repulsion  :          265.68853701 Eh            7229.75265 eV
Electronic Energy  :         -573.10136923 Eh          -15594.88109 eV
One Electron Energy:         -944.80917750 Eh          -25709.56477 eV
Two Electron Energy:          371.70780827 Eh           10114.68368 eV

Virial components:
Potential Energy   :         -613.98458473 Eh          -16707.36994 eV
Kinetic Energy     :          306.57175250 Eh            8342.24150 eV
Virial Ratio       :            2.00274350


DFT components:
N(Alpha)           :       24.000026426895 electrons
N(Beta)            :       24.000026426895 electrons
N(Total)           :       48.000052853790 electrons
E(X)               :      -39.976336648704 Eh       
E(C)               :       -1.599676813991 Eh       
E(XC)              :      -41.576013462695 Eh       
DFET-embed. en.    :        0.000000000000 Eh       

---------------
SCF CONVERGENCE
---------------

  Last Energy change         ...   -7.5018e-07  Tolerance :   1.0000e-06
  Last MAX-Density change    ...    1.0903e-05  Tolerance :   1.0000e-05
  Last RMS-Density change    ...    4.5213e-07  Tolerance :   1.0000e-06
  Last Orbital Gradient      ...    1.0036e-05  Tolerance :   5.0000e-05
  Last Orbital Rotation      ...    2.0982e-05  Tolerance :   5.0000e-05

             **** THE GBW FILE WAS UPDATED (G.gbw) ****
             **** DENSITY G.scfp WAS UPDATED ****
             **** ENERGY FILE WAS UPDATED (G.en.tmp) ****
             **** THE GBW FILE WAS UPDATED (G.gbw) ****
             **** DENSITY G.scfp WAS UPDATED ****
----------------
ORBITAL ENERGIES
----------------

  NO   OCC          E(Eh)            E(eV) 
   0   2.0000     -18.757089      -510.4063 
   1   2.0000     -18.757088      -510.4063 
   2   2.0000      -9.928559      -270.1698 
   3   2.0000      -9.928559      -270.1698 
   4   2.0000      -9.928421      -270.1661 
   5   2.0000      -9.928420      -270.1660 
   6   2.0000      -0.980901       -26.6917 
   7   2.0000      -0.943861       -25.6838 
   8   2.0000      -0.714687       -19.4476 
   9   2.0000      -0.631572       -17.1860 
  10   2.0000      -0.610400       -16.6098 
  11   2.0000      -0.521579       -14.1929 
  12   2.0000      -0.462730       -12.5915 
  13   2.0000      -0.446851       -12.1594 
  14   2.0000      -0.433848       -11.8056 
  15   2.0000      -0.429538       -11.6883 
  16   2.0000      -0.401452       -10.9241 
  17   2.0000      -0.356361        -9.6971 
  18   2.0000      -0.332439        -9.0461 
  19   2.0000      -0.325491        -8.8571 
  20   2.0000      -0.320898        -8.7321 
  21   2.0000      -0.262259        -7.1364 
  22   2.0000      -0.243052        -6.6138 
  23   2.0000      -0.200762        -5.4630 
  24   0.0000       0.005028         0.1368 
  25   0.0000       0.019555         0.5321 
  26   0.0000       0.019820         0.5393 
  27   0.0000       0.035065         0.9542 
  28   0.0000       0.046304         1.2600 
  29   0.0000       0.059518         1.6196 
  30   0.0000       0.062480         1.7002 
  31   0.0000       0.064554         1.7566 
  32   0.0000       0.090691         2.4678 
  33   0.0000       0.092785         2.5248 
  34   0.0000       0.121284         3.3003 
  35   0.0000       0.126857         3.4520 
  36   0.0000       0.135344         3.6829 
  37   0.0000       0.159779         4.3478 
  38   0.0000       0.176328         4.7981 
  39   0.0000       0.176344         4.7986 
  40   0.0000       0.224776         6.1165 
  41   0.0000       0.226432         6.1615 
  42   0.0000       0.241428         6.5696 
  43   0.0000       0.260753         7.0954 
  44   0.0000       0.265141         7.2149 
  45   0.0000       0.267348         7.2749 
  46   0.0000       0.280816         7.6414 
  47   0.0000       0.287940         7.8353 
  48   0.0000       0.294259         8.0072 
  49   0.0000       0.295498         8.0409 
  50   0.0000       0.307998         8.3811 
  51   0.0000       0.316219         8.6047 
  52   0.0000       0.318031         8.6541 
  53   0.0000       0.326655         8.8887 
  54   0.0000       0.331381         9.0173 
  55   0.0000       0.335521         9.1300 
  56   0.0000       0.353946         9.6313 
  57   0.0000       0.379591        10.3292 
  58   0.0000       0.379775        10.3342 
  59   0.0000       0.442984        12.0542 
  60   0.0000       0.474888        12.9224 
  61   0.0000       0.491351        13.3703 
  62   0.0000       0.492032        13.3889 
  63   0.0000       0.505997        13.7689 
  64   0.0000       0.556877        15.1534 
  65   0.0000       0.569896        15.5077 
  66   0.0000       0.580229        15.7888 
  67   0.0000       0.623089        16.9551 
  68   0.0000       0.665260        18.1026 
  69   0.0000       0.690121        18.7791 
  70   0.0000       0.710360        19.3299 
  71   0.0000       0.713458        19.4142 
  72   0.0000       0.751554        20.4508 
  73   0.0000       0.806179        21.9372 
  74   0.0000       0.812759        22.1163 
  75   0.0000       0.831232        22.6190 
  76   0.0000       0.836497        22.7622 
  77   0.0000       0.850390        23.1403 
  78   0.0000       0.870907        23.6986 
  79   0.0000       0.915801        24.9202 
  80   0.0000       0.930340        25.3158 
  81   0.0000       0.937420        25.5085 
  82   0.0000       0.968319        26.3493 
  83   0.0000       0.978245        26.6194 
  84   0.0000       0.995424        27.0869 
  85   0.0000       0.998698        27.1760 
  86   0.0000       1.008588        27.4451 
  87   0.0000       1.026353        27.9285 
  88   0.0000       1.030893        28.0520 
  89   0.0000       1.034167        28.1411 
  90   0.0000       1.048468        28.5303 
  91   0.0000       1.092360        29.7246 
  92   0.0000       1.106274        30.1033 
  93   0.0000       1.143586        31.1185 
  94   0.0000       1.150012        31.2934 
  95   0.0000       1.157372        31.4937 
  96   0.0000       1.171990        31.8915 
  97   0.0000       1.197414        32.5833 
  98   0.0000       1.202847        32.7311 
  99   0.0000       1.275462        34.7071 
 100   0.0000       1.278590        34.7922 
 101   0.0000       1.293126        35.1877 
 102   0.0000       1.311577        35.6898 
 103   0.0000       1.334973        36.3265 
 104   0.0000       1.350493        36.7488 
 105   0.0000       1.369246        37.2591 
 106   0.0000       1.388640        37.7868 
 107   0.0000       1.423034        38.7227 
 108   0.0000       1.442286        39.2466 
 109   0.0000       1.484036        40.3827 
 110   0.0000       1.561997        42.5041 
 111   0.0000       1.565032        42.5867 
 112   0.0000       1.566144        42.6169 
 113   0.0000       1.607609        43.7453 
 114   0.0000       1.629685        44.3460 
 115   0.0000       1.654140        45.0114 
 116   0.0000       1.670612        45.4597 
 117   0.0000       1.673690        45.5434 
 118   0.0000       1.697754        46.1982 
 119   0.0000       1.733269        47.1646 
 120   0.0000       1.747286        47.5461 
 121   0.0000       1.771711        48.2107 
 122   0.0000       1.801044        49.0089 
 123   0.0000       1.814952        49.3874 
 124   0.0000       1.824674        49.6519 
 125   0.0000       1.855611        50.4938 
 126   0.0000       1.856582        50.5202 
 127   0.0000       1.899918        51.6994 
 128   0.0000       1.951167        53.0939 
 129   0.0000       1.963309        53.4244 
 130   0.0000       2.016259        54.8652 
 131   0.0000       2.049034        55.7570 
 132   0.0000       2.139663        58.2232 
 133   0.0000       2.153804        58.6080 
 134   0.0000       2.160704        58.7958 
 135   0.0000       2.193361        59.6844 
 136   0.0000       2.202835        59.9422 
 137   0.0000       2.285262        62.1851 
 138   0.0000       2.314344        62.9765 
 139   0.0000       2.318940        63.1016 
 140   0.0000       2.323018        63.2125 
 141   0.0000       2.351607        63.9905 
 142   0.0000       2.361724        64.2658 
 143   0.0000       2.379389        64.7465 
 144   0.0000       2.505220        68.1705 
 145   0.0000       2.533019        68.9270 
 146   0.0000       2.577517        70.1378 
 147   0.0000       2.579468        70.1909 
 148   0.0000       2.634155        71.6790 
 149   0.0000       2.737506        74.4913 
 150   0.0000       2.810131        76.4676 
 151   0.0000       2.954934        80.4078 
 152   0.0000       2.959039        80.5195 
 153   0.0000       2.984760        81.2194 
 154   0.0000       3.010289        81.9141 
 155   0.0000       3.093927        84.1900 
 156   0.0000       3.113816        84.7312 
 157   0.0000       3.118016        84.8455 
 158   0.0000       3.188007        86.7501 
 159   0.0000       3.195372        86.9505 
 160   0.0000       3.215897        87.5090 
 161   0.0000       3.241794        88.2137 
 162   0.0000       3.257745        88.6478 
 163   0.0000       3.309604        90.0589 
 164   0.0000       3.343550        90.9826 
 165   0.0000       3.350211        91.1639 
 166   0.0000       3.351593        91.2015 
 167   0.0000       3.375986        91.8652 
 168   0.0000       3.432035        93.3904 
 169   0.0000       3.495283        95.1115 
 170   0.0000       3.509080        95.4869 
 171   0.0000       3.524174        95.8977 
 172   0.0000       3.551803        96.6495 
 173   0.0000       3.600363        97.9709 
 174   0.0000       3.616066        98.3982 
 175   0.0000       3.626475        98.6814 
 176   0.0000       3.655699        99.4766 
 177   0.0000       3.726470       101.4024 
 178   0.0000       3.729544       101.4861 
 179   0.0000       3.737617       101.7057 
 180   0.0000       3.756760       102.2266 
 181   0.0000       3.760932       102.3402 
 182   0.0000       3.772640       102.6587 
 183   0.0000       3.787277       103.0571 
 184   0.0000       3.806922       103.5916 
 185   0.0000       3.820285       103.9552 
 186   0.0000       3.830592       104.2357 
 187   0.0000       3.856341       104.9364 
 188   0.0000       3.861987       105.0900 
 189   0.0000       3.884296       105.6971 
 190   0.0000       3.907147       106.3189 
 191   0.0000       3.916611       106.5764 
 192   0.0000       3.923370       106.7603 
 193   0.0000       3.981038       108.3296 
 194   0.0000       3.993063       108.6568 
 195   0.0000       4.057688       110.4153 
 196   0.0000       4.091050       111.3231 
 197   0.0000       4.154423       113.0476 
 198   0.0000       4.226563       115.0106 
 199   0.0000       4.247963       115.5929 
 200   0.0000       4.257711       115.8582 
 201   0.0000       4.273744       116.2945 
 202   0.0000       4.302100       117.0661 
 203   0.0000       4.312681       117.3540 
 204   0.0000       4.322587       117.6236 
 205   0.0000       4.324241       117.6686 
 206   0.0000       4.341362       118.1345 
 207   0.0000       4.364674       118.7688 
 208   0.0000       4.385871       119.3456 
 209   0.0000       4.390845       119.4810 
 210   0.0000       4.418617       120.2367 
 211   0.0000       4.423993       120.3830 
 212   0.0000       4.456679       121.2724 
 213   0.0000       4.457511       121.2950 
 214   0.0000       4.470584       121.6508 
 215   0.0000       4.478194       121.8578 
 216   0.0000       4.478604       121.8690 
 217   0.0000       4.517950       122.9397 
 218   0.0000       4.524912       123.1291 
 219   0.0000       4.527654       123.2037 
 220   0.0000       4.568445       124.3137 
 221   0.0000       4.569233       124.3352 
 222   0.0000       4.570336       124.3652 
 223   0.0000       4.588230       124.8521 
 224   0.0000       4.638502       126.2201 
 225   0.0000       4.666701       126.9874 
 226   0.0000       4.667472       127.0084 
 227   0.0000       4.672986       127.1584 
 228   0.0000       4.723056       128.5209 
 229   0.0000       4.723328       128.5283 
 230   0.0000       4.736461       128.8857 
 231   0.0000       4.751781       129.3025 
 232   0.0000       4.754581       129.3787 
 233   0.0000       4.757251       129.4514 
 234   0.0000       4.780199       130.0758 
 235   0.0000       4.801384       130.6523 
 236   0.0000       4.823282       131.2482 
 237   0.0000       4.825222       131.3010 
 238   0.0000       4.837234       131.6278 
 239   0.0000       4.879632       132.7815 
 240   0.0000       4.882261       132.8531 
 241   0.0000       4.893612       133.1619 
 242   0.0000       5.006867       136.2438 
 243   0.0000       5.017591       136.5356 
 244   0.0000       5.033970       136.9813 
 245   0.0000       5.059439       137.6743 
 246   0.0000       5.134005       139.7034 
 247   0.0000       5.134636       139.7205 
 248   0.0000       5.172548       140.7522 
 249   0.0000       5.199021       141.4726 
 250   0.0000       5.209601       141.7604 
 251   0.0000       5.276201       143.5727 
 252   0.0000       5.379150       146.3741 
 253   0.0000       5.395328       146.8143 
 254   0.0000       5.436336       147.9302 
 255   0.0000       5.462949       148.6544 
 256   0.0000       5.465993       148.7372 
 257   0.0000       5.524686       150.3344 
 258   0.0000       5.534138       150.5915 
 259   0.0000       5.555910       151.1840 
 260   0.0000       5.571492       151.6080 
 261   0.0000       5.578540       151.7998 
 262   0.0000       5.588456       152.0696 
 263   0.0000       5.590101       152.1144 
 264   0.0000       5.623192       153.0148 
 265   0.0000       5.641385       153.5099 
 266   0.0000       5.650410       153.7555 
 267   0.0000       5.674366       154.4073 
 268   0.0000       5.721366       155.6863 
 269   0.0000       5.731880       155.9724 
 270   0.0000       5.733712       156.0222 
 271   0.0000       5.735773       156.0783 
 272   0.0000       5.775248       157.1525 
 273   0.0000       5.791352       157.5907 
 274   0.0000       5.831490       158.6829 
 275   0.0000       5.897529       160.4799 
 276   0.0000       5.924490       161.2136 
 277   0.0000       5.985167       162.8647 
 278   0.0000       6.072287       165.2353 
 279   0.0000       6.156577       167.5290 
 280   0.0000       6.185061       168.3041 
 281   0.0000       6.194702       168.5664 
 282   0.0000       6.259846       170.3391 
 283   0.0000       6.295875       171.3195 
 284   0.0000       6.349725       172.7848 
 285   0.0000       6.440656       175.2592 
 286   0.0000       6.456757       175.6973 
 287   0.0000       6.479626       176.3196 
 288   0.0000       6.508870       177.1153 
 289   0.0000       6.517341       177.3459 
 290   0.0000       6.652251       181.0170 
 291   0.0000       6.667336       181.4274 
 292   0.0000       6.691330       182.0803 
 293   0.0000       6.745676       183.5592 
 294   0.0000       6.779050       184.4673 
 295   0.0000       6.814800       185.4401 
 296   0.0000       6.842195       186.1856 
 297   0.0000       6.851021       186.4258 
 298   0.0000       6.915013       188.1671 
 299   0.0000       7.332536       199.5284 
 300   0.0000       7.404503       201.4868 
 301   0.0000       8.106568       220.5909 
 302   0.0000       8.134786       221.3588 
 303   0.0000       8.227559       223.8833 
 304   0.0000       8.287747       225.5210 
 305   0.0000       8.492038       231.0801 
 306   0.0000       8.544304       232.5023 
 307   0.0000       8.735378       237.7017 
 308   0.0000       9.077525       247.0120 
 309   0.0000       9.214975       250.7522 
 310   0.0000      18.503172       503.4969 
 311   0.0000      18.641491       507.2608 
 312   0.0000      18.762119       510.5432 
 313   0.0000      18.800539       511.5887 
 314   0.0000      18.959184       515.9056 
 315   0.0000      18.994796       516.8747 
 316   0.0000      19.123766       520.3841 
 317   0.0000      19.194088       522.2977 
 318   0.0000      19.210522       522.7449 
 319   0.0000      19.246996       523.7374 
 320   0.0000      19.529844       531.4341 
 321   0.0000      19.555538       532.1332 
 322   0.0000      33.239060       904.4808 
 323   0.0000      33.282851       905.6724 
 324   0.0000      33.340617       907.2443 
 325   0.0000      33.506752       911.7651 
 326   0.0000      33.742107       918.1694 
 327   0.0000      33.757076       918.5767 

                    ********************************
                    * MULLIKEN POPULATION ANALYSIS *
                    ********************************

-----------------------
MULLIKEN ATOMIC CHARGES
-----------------------
   0 C :    0.150784
   1 C :    0.149808
   2 O :   -0.397527
   3 O :   -0.397527
   4 C :    0.150788
   5 C :    0.149806
   6 H :    0.035330
   7 H :    0.012935
   8 H :    0.035304
   9 H :    0.013365
  10 H :    0.035331
  11 H :    0.012934
  12 H :    0.013365
  13 H :    0.035304
Sum of atomic charges:    0.0000000

--------------------------------
MULLIKEN REDUCED ORBITAL CHARGES
--------------------------------
  0 C s       :     3.035218  s :     3.035218
      pz      :     0.850654  p :     2.709346
      px      :     1.013822
      py      :     0.844870
      dz2     :     0.023698  d :     0.099211
      dxz     :     0.017142
      dyz     :     0.021623
      dx2y2   :     0.022203
      dxy     :     0.014545
      f0      :     0.000797  f :     0.005442
      f+1     :     0.000338
      f-1     :     0.001335
      f+2     :     0.000942
      f-2     :     0.000954
      f+3     :     0.000543
      f-3     :     0.000534
  1 C s       :     3.035616  s :     3.035616
      pz      :     0.983865  p :     2.709880
      px      :     0.757973
      py      :     0.968042
      dz2     :     0.011283  d :     0.099250
      dxz     :     0.023902
      dyz     :     0.017896
      dx2y2   :     0.025471
      dxy     :     0.020698
      f0      :     0.000473  f :     0.005446
      f+1     :     0.000962
      f-1     :     0.000360
      f+2     :     0.000751
      f-2     :     0.000657
      f+3     :     0.001225
      f-3     :     0.001019
  2 O s       :     3.813047  s :     3.813047
      pz      :     1.551714  p :     4.535865
      px      :     1.399163
      py      :     1.584988
      dz2     :     0.007056  d :     0.044911
      dxz     :     0.007351
      dyz     :     0.010186
      dx2y2   :     0.010610
      dxy     :     0.009708
      f0      :     0.000494  f :     0.003704
      f+1     :     0.000511
      f-1     :     0.000497
      f+2     :     0.000741
      f-2     :     0.000588
      f+3     :     0.000397
      f-3     :     0.000476
  3 O s       :     3.813047  s :     3.813047
      pz      :     1.551716  p :     4.535866
      px      :     1.399162
      py      :     1.584988
      dz2     :     0.007056  d :     0.044911
      dxz     :     0.007351
      dyz     :     0.010186
      dx2y2   :     0.010610
      dxy     :     0.009708
      f0      :     0.000494  f :     0.003704
      f+1     :     0.000511
      f-1     :     0.000497
      f+2     :     0.000741
      f-2     :     0.000588
      f+3     :     0.000397
      f-3     :     0.000476
  4 C s       :     3.035214  s :     3.035214
      pz      :     0.850655  p :     2.709346
      px      :     1.013821
      py      :     0.844870
      dz2     :     0.023698  d :     0.099211
      dxz     :     0.017142
      dyz     :     0.021623
      dx2y2   :     0.022203
      dxy     :     0.014545
      f0      :     0.000797  f :     0.005442
      f+1     :     0.000338
      f-1     :     0.001335
      f+2     :     0.000942
      f-2     :     0.000954
      f+3     :     0.000543
      f-3     :     0.000534
  5 C s       :     3.035619  s :     3.035619
      pz      :     0.983864  p :     2.709879
      px      :     0.757973
      py      :     0.968041
      dz2     :     0.011283  d :     0.099250
      dxz     :     0.023902
      dyz     :     0.017896
      dx2y2   :     0.025471
      dxy     :     0.020698
      f0      :     0.000473  f :     0.005446
      f+1     :     0.000962
      f-1     :     0.000360
      f+2     :     0.000751
      f-2     :     0.000657
      f+3     :     0.001225
      f-3     :     0.001019
  6 H s       :     0.921926  s :     0.921926
      pz      :     0.009529  p :     0.040361
      px      :     0.021608
      py      :     0.009224
      dz2     :     0.000259  d :     0.002383
      dxz     :     0.000687
      dyz     :     0.000141
      dx2y2   :     0.000712
      dxy     :     0.000585
  7 H s       :     0.945020  s :     0.945020
      pz      :     0.018042  p :     0.039715
      px      :     0.013644
      py      :     0.008029
      dz2     :     0.000635  d :     0.002330
      dxz     :     0.000748
      dyz     :     0.000450
      dx2y2   :     0.000296
      dxy     :     0.000201
  8 H s       :     0.921950  s :     0.921950
      pz      :     0.016342  p :     0.040362
      px      :     0.008126
      py      :     0.015894
      dz2     :     0.000552  d :     0.002383
      dxz     :     0.000449
      dyz     :     0.000712
      dx2y2   :     0.000383
      dxy     :     0.000286
  9 H s       :     0.944633  s :     0.944633
      pz      :     0.016307  p :     0.039673
      px      :     0.014899
      py      :     0.008467
      dz2     :     0.000487  d :     0.002328
      dxz     :     0.000781
      dyz     :     0.000384
      dx2y2   :     0.000414
      dxy     :     0.000263
 10 H s       :     0.921926  s :     0.921926
      pz      :     0.009529  p :     0.040361
      px      :     0.021608
      py      :     0.009224
      dz2     :     0.000259  d :     0.002383
      dxz     :     0.000687
      dyz     :     0.000141
      dx2y2   :     0.000712
      dxy     :     0.000585
 11 H s       :     0.945021  s :     0.945021
      pz      :     0.018043  p :     0.039715
      px      :     0.013644
      py      :     0.008029
      dz2     :     0.000635  d :     0.002330
      dxz     :     0.000748
      dyz     :     0.000450
      dx2y2   :     0.000296
      dxy     :     0.000201
 12 H s       :     0.944633  s :     0.944633
      pz      :     0.016307  p :     0.039673
      px      :     0.014900
      py      :     0.008467
      dz2     :     0.000487  d :     0.002328
      dxz     :     0.000781
      dyz     :     0.000384
      dx2y2   :     0.000414
      dxy     :     0.000263
 13 H s       :     0.921951  s :     0.921951
      pz      :     0.016343  p :     0.040362
      px      :     0.008126
      py      :     0.015894
      dz2     :     0.000552  d :     0.002383
      dxz     :     0.000449
      dyz     :     0.000712
      dx2y2   :     0.000383
      dxy     :     0.000286


                     *******************************
                     * LOEWDIN POPULATION ANALYSIS *
                     *******************************

----------------------
LOEWDIN ATOMIC CHARGES
----------------------
   0 C :   -0.068647
   1 C :   -0.068716
   2 O :    0.019496
   3 O :    0.019496
   4 C :   -0.068648
   5 C :   -0.068716
   6 H :    0.036790
   7 H :    0.022151
   8 H :    0.036806
   9 H :    0.022121
  10 H :    0.036791
  11 H :    0.022150
  12 H :    0.022121
  13 H :    0.036806

-------------------------------
LOEWDIN REDUCED ORBITAL CHARGES
-------------------------------
  0 C s       :     2.755833  s :     2.755833
      pz      :     0.935999  p :     2.907367
      px      :     1.043871
      py      :     0.927497
      dz2     :     0.077404  d :     0.365527
      dxz     :     0.070169
      dyz     :     0.085405
      dx2y2   :     0.085357
      dxy     :     0.047192
      f0      :     0.005752  f :     0.039921
      f+1     :     0.004369
      f-1     :     0.008640
      f+2     :     0.006378
      f-2     :     0.006181
      f+3     :     0.004249
      f-3     :     0.004352
  1 C s       :     2.755825  s :     2.755825
      pz      :     1.031585  p :     2.907362
      px      :     0.871743
      py      :     1.004034
      dz2     :     0.038171  d :     0.365584
      dxz     :     0.096471
      dyz     :     0.068264
      dx2y2   :     0.093991
      dxy     :     0.068687
      f0      :     0.003834  f :     0.039945
      f+1     :     0.007602
      f-1     :     0.003210
      f+2     :     0.004750
      f-2     :     0.004938
      f+3     :     0.008017
      f-3     :     0.007593
  2 O s       :     3.358307  s :     3.358307
      pz      :     1.525965  p :     4.507919
      px      :     1.411296
      py      :     1.570658
      dz2     :     0.017166  d :     0.099852
      dxz     :     0.022413
      dyz     :     0.017806
      dx2y2   :     0.022559
      dxy     :     0.019908
      f0      :     0.001484  f :     0.014427
      f+1     :     0.002039
      f-1     :     0.001839
      f+2     :     0.002527
      f-2     :     0.002186
      f+3     :     0.001988
      f-3     :     0.002365
  3 O s       :     3.358307  s :     3.358307
      pz      :     1.525967  p :     4.507919
      px      :     1.411294
      py      :     1.570658
      dz2     :     0.017166  d :     0.099852
      dxz     :     0.022413
      dyz     :     0.017806
      dx2y2   :     0.022559
      dxy     :     0.019908
      f0      :     0.001484  f :     0.014427
      f+1     :     0.002039
      f-1     :     0.001840
      f+2     :     0.002527
      f-2     :     0.002186
      f+3     :     0.001988
      f-3     :     0.002365
  4 C s       :     2.755833  s :     2.755833
      pz      :     0.936000  p :     2.907367
      px      :     1.043870
      py      :     0.927497
      dz2     :     0.077405  d :     0.365527
      dxz     :     0.070168
      dyz     :     0.085405
      dx2y2   :     0.085358
      dxy     :     0.047192
      f0      :     0.005752  f :     0.039921
      f+1     :     0.004369
      f-1     :     0.008640
      f+2     :     0.006378
      f-2     :     0.006181
      f+3     :     0.004249
      f-3     :     0.004352
  5 C s       :     2.755825  s :     2.755825
      pz      :     1.031585  p :     2.907363
      px      :     0.871743
      py      :     1.004034
      dz2     :     0.038171  d :     0.365585
      dxz     :     0.096471
      dyz     :     0.068264
      dx2y2   :     0.093991
      dxy     :     0.068687
      f0      :     0.003834  f :     0.039945
      f+1     :     0.007602
      f-1     :     0.003210
      f+2     :     0.004750
      f-2     :     0.004938
      f+3     :     0.008017
      f-3     :     0.007593
  6 H s       :     0.824670  s :     0.824670
      pz      :     0.029884  p :     0.119949
      px      :     0.057995
      py      :     0.032070
      dz2     :     0.002119  d :     0.018591
      dxz     :     0.005311
      dyz     :     0.001151
      dx2y2   :     0.005257
      dxy     :     0.004751
  7 H s       :     0.836065  s :     0.836065
      pz      :     0.053176  p :     0.123504
      px      :     0.041787
      py      :     0.028541
      dz2     :     0.005489  d :     0.018280
      dxz     :     0.005214
      dyz     :     0.003631
      dx2y2   :     0.002062
      dxy     :     0.001884
  8 H s       :     0.824651  s :     0.824651
      pz      :     0.046778  p :     0.119949
      px      :     0.025525
      py      :     0.047646
      dz2     :     0.004911  d :     0.018594
      dxz     :     0.003059
      dyz     :     0.005039
      dx2y2   :     0.002915
      dxy     :     0.002671
  9 H s       :     0.836076  s :     0.836076
      pz      :     0.048310  p :     0.123519
      px      :     0.044310
      py      :     0.030899
      dz2     :     0.004144  d :     0.018284
      dxz     :     0.005361
      dyz     :     0.003458
      dx2y2   :     0.002684
      dxy     :     0.002637
 10 H s       :     0.824670  s :     0.824670
      pz      :     0.029884  p :     0.119949
      px      :     0.057995
      py      :     0.032070
      dz2     :     0.002119  d :     0.018591
      dxz     :     0.005311
      dyz     :     0.001151
      dx2y2   :     0.005257
      dxy     :     0.004751
 11 H s       :     0.836065  s :     0.836065
      pz      :     0.053177  p :     0.123504
      px      :     0.041787
      py      :     0.028541
      dz2     :     0.005489  d :     0.018280
      dxz     :     0.005214
      dyz     :     0.003631
      dx2y2   :     0.002062
      dxy     :     0.001884
 12 H s       :     0.836077  s :     0.836077
      pz      :     0.048310  p :     0.123519
      px      :     0.044311
      py      :     0.030899
      dz2     :     0.004144  d :     0.018284
      dxz     :     0.005361
      dyz     :     0.003458
      dx2y2   :     0.002684
      dxy     :     0.002637
 13 H s       :     0.824651  s :     0.824651
      pz      :     0.046778  p :     0.119949
      px      :     0.025525
      py      :     0.047646
      dz2     :     0.004911  d :     0.018594
      dxz     :     0.003059
      dyz     :     0.005039
      dx2y2   :     0.002915
      dxy     :     0.002671


                      *****************************
                      * MAYER POPULATION ANALYSIS *
                      *****************************

  NA   - Mulliken gross atomic population
  ZA   - Total nuclear charge
  QA   - Mulliken gross atomic charge
  VA   - Mayer's total valence
  BVA  - Mayer's bonded valence
  FA   - Mayer's free valence

  ATOM       NA         ZA         QA         VA         BVA        FA
  0 C      5.8492     6.0000     0.1508     3.9096     3.9096     0.0000
  1 C      5.8502     6.0000     0.1498     3.9098     3.9098    -0.0000
  2 O      8.3975     8.0000    -0.3975     1.9925     1.9925    -0.0000
  3 O      8.3975     8.0000    -0.3975     1.9925     1.9925    -0.0000
  4 C      5.8492     6.0000     0.1508     3.9096     3.9096    -0.0000
  5 C      5.8502     6.0000     0.1498     3.9098     3.9098     0.0000
  6 H      0.9647     1.0000     0.0353     1.0134     1.0134     0.0000
  7 H      0.9871     1.0000     0.0129     1.0234     1.0234    -0.0000
  8 H      0.9647     1.0000     0.0353     1.0134     1.0134    -0.0000
  9 H      0.9866     1.0000     0.0134     1.0232     1.0232     0.0000
 10 H      0.9647     1.0000     0.0353     1.0134     1.0134    -0.0000
 11 H      0.9871     1.0000     0.0129     1.0234     1.0234    -0.0000
 12 H      0.9866     1.0000     0.0134     1.0232     1.0232     0.0000
 13 H      0.9647     1.0000     0.0353     1.0134     1.0134     0.0000

  Mayer bond orders larger than 0.100000
B(  0-C ,  1-C ) :   0.9844 B(  0-C ,  2-O ) :   0.9433 B(  0-C ,  6-H ) :   0.9790 
B(  0-C ,  7-H ) :   0.9791 B(  1-C ,  3-O ) :   0.9432 B(  1-C ,  8-H ) :   0.9790 
B(  1-C ,  9-H ) :   0.9792 B(  2-O ,  5-C ) :   0.9432 B(  3-O ,  4-C ) :   0.9433 
B(  4-C ,  5-C ) :   0.9844 B(  4-C , 10-H ) :   0.9790 B(  4-C , 11-H ) :   0.9791 
B(  5-C , 12-H ) :   0.9792 B(  5-C , 13-H ) :   0.9790 

-------
TIMINGS
-------

Total SCF time: 0 days 0 hours 0 min 34 sec 

Total time                  ....      34.244 sec
Sum of individual times     ....      33.780 sec  ( 98.6%)

Fock matrix formation       ....      30.578 sec  ( 89.3%)
  Split-RI-J                ....       8.060 sec  ( 26.4% of F)
  XC integration            ....      22.470 sec  ( 73.5% of F)
    Basis function eval.    ....       6.135 sec  ( 27.3% of XC)
    Density eval.           ....       6.656 sec  ( 29.6% of XC)
    XC-Functional eval.     ....       0.796 sec  (  3.5% of XC)
    XC-Potential eval.      ....       8.247 sec  ( 36.7% of XC)
Diagonalization             ....       0.218 sec  (  0.6%)
Density matrix formation    ....       0.014 sec  (  0.0%)
Population analysis         ....       0.018 sec  (  0.1%)
Initial guess               ....       1.265 sec  (  3.7%)
Orbital Transformation      ....       0.000 sec  (  0.0%)
Orbital Orthonormalization  ....       0.000 sec  (  0.0%)
DIIS solution               ....       0.085 sec  (  0.2%)
SOSCF solution              ....       0.041 sec  (  0.1%)
Grid generation             ....       1.561 sec  (  4.6%)

Maximum memory used throughout the entire SCF-calculation: 123.5 MB

-------------------------   --------------------
FINAL SINGLE POINT ENERGY      -307.412832225632
-------------------------   --------------------


                            ***************************************
                            *     ORCA property calculations      *
                            ***************************************

                                    ---------------------
                                    Active property flags
                                    ---------------------
   (+) Dipole Moment
   (+) Chemical Shifts
   (+) Nuclear properties (Hyperfine,Quadrupole)


------------------------------------------------------------------------------
                       ORCA ELECTRIC PROPERTIES CALCULATION
------------------------------------------------------------------------------

Dipole Moment Calculation                       ... on
Quadrupole Moment Calculation                   ... off
Polarizability Calculation                      ... off
GBWName                                         ... G.gbw
Electron density                                ... G.scfp
The origin for moment calculation is the CENTER OF MASS  = (-12.345327,  1.723314 -11.303929)

-------------
DIPOLE MOMENT
-------------
                                X             Y             Z
Electronic contribution:     -0.00001      -0.00000      -0.00001
Nuclear contribution   :      0.00001       0.00000       0.00001
                        -----------------------------------------
Total Dipole Moment    :     -0.00000      -0.00000      -0.00000
                        -----------------------------------------
Magnitude (a.u.)       :      0.00000
Magnitude (Debye)      :      0.00000



--------------------
Rotational spectrum 
--------------------
 
Rotational constants in cm-1:     0.171660     0.157800     0.092244 
Rotational constants in MHz :  5146.248509  4730.728308  2765.414363 

 Dipole components along the rotational axes: 
x,y,z [a.u.] :    -0.000001     0.000000    -0.000000 
x,y,z [Debye]:    -0.000002     0.000001    -0.000000 

 
------------------------------------------------------------------------------
                                ORCA EPR/NMR CALCULATION
------------------------------------------------------------------------------

GBWName                      ... G.gbw
Electron density             ... G.scfp
Spin density                 ... G.scfr
Treatment of gauge           ... GIAO (approximations 1/2el = 0,0)
Details of the CP(SCF) procedure:
       Solver   = POPLE   
       MaxIter  =    64   
       Tolerance=    1.000e-03
       Op-0     =   0- 23 =>  24-327
Multiplicity                 ... 1
g-tensor                     ... 0
NMR chemical shifts          ... 1
NMR spin-spin couplings      ... 0
NMR spectrum                 ... 0
Number of nuclei for epr/nmr ... 14
   Nucleus:   0C 
       Hyperfine : Isotope=   13 I=   0.500 P= 134.188
       Quadrupole: Isotope=   13 I=   0.500 Q=   0.000
       Spin-Orbit: Zeff=   3.600
       Nuclear Spin-Spin: Gn=   0.000
       EPRNMR Input: 
       rho(0)=N f(grad)=N a(iso)=N a(dip)=N a(orb)=N sigma(nmr)=Y spin-spin(nmr)=all-N,DSO-N,PSO-N,FC-N,SD-N
   Nucleus:   1C 
       Hyperfine : Isotope=   13 I=   0.500 P= 134.188
       Quadrupole: Isotope=   13 I=   0.500 Q=   0.000
       Spin-Orbit: Zeff=   3.600
       Nuclear Spin-Spin: Gn=   0.000
       EPRNMR Input: 
       rho(0)=N f(grad)=N a(iso)=N a(dip)=N a(orb)=N sigma(nmr)=Y spin-spin(nmr)=all-N,DSO-N,PSO-N,FC-N,SD-N
   Nucleus:   2O 
       Hyperfine : Isotope=   17 I=   2.500 P= -72.357
       Quadrupole: Isotope=   17 I=   2.500 Q=  -0.026
       Spin-Orbit: Zeff=   5.600
       Nuclear Spin-Spin: Gn=   0.000
       EPRNMR Input: 
       rho(0)=N f(grad)=N a(iso)=N a(dip)=N a(orb)=N sigma(nmr)=Y spin-spin(nmr)=all-N,DSO-N,PSO-N,FC-N,SD-N
   Nucleus:   3O 
       Hyperfine : Isotope=   17 I=   2.500 P= -72.357
       Quadrupole: Isotope=   17 I=   2.500 Q=  -0.026
       Spin-Orbit: Zeff=   5.600
       Nuclear Spin-Spin: Gn=   0.000
       EPRNMR Input: 
       rho(0)=N f(grad)=N a(iso)=N a(dip)=N a(orb)=N sigma(nmr)=Y spin-spin(nmr)=all-N,DSO-N,PSO-N,FC-N,SD-N
   Nucleus:   4C 
       Hyperfine : Isotope=   13 I=   0.500 P= 134.188
       Quadrupole: Isotope=   13 I=   0.500 Q=   0.000
       Spin-Orbit: Zeff=   3.600
       Nuclear Spin-Spin: Gn=   0.000
       EPRNMR Input: 
       rho(0)=N f(grad)=N a(iso)=N a(dip)=N a(orb)=N sigma(nmr)=Y spin-spin(nmr)=all-N,DSO-N,PSO-N,FC-N,SD-N
   Nucleus:   5C 
       Hyperfine : Isotope=   13 I=   0.500 P= 134.188
       Quadrupole: Isotope=   13 I=   0.500 Q=   0.000
       Spin-Orbit: Zeff=   3.600
       Nuclear Spin-Spin: Gn=   0.000
       EPRNMR Input: 
       rho(0)=N f(grad)=N a(iso)=N a(dip)=N a(orb)=N sigma(nmr)=Y spin-spin(nmr)=all-N,DSO-N,PSO-N,FC-N,SD-N
   Nucleus:   6H 
       Hyperfine : Isotope=    1 I=   0.500 P= 533.552
       Quadrupole: Isotope=    2 I=   1.000 Q=   0.003
       Spin-Orbit: Zeff=   1.000
       Nuclear Spin-Spin: Gn=   0.000
       EPRNMR Input: 
       rho(0)=N f(grad)=N a(iso)=N a(dip)=N a(orb)=N sigma(nmr)=Y spin-spin(nmr)=all-N,DSO-N,PSO-N,FC-N,SD-N
   Nucleus:   7H 
       Hyperfine : Isotope=    1 I=   0.500 P= 533.552
       Quadrupole: Isotope=    2 I=   1.000 Q=   0.003
       Spin-Orbit: Zeff=   1.000
       Nuclear Spin-Spin: Gn=   0.000
       EPRNMR Input: 
       rho(0)=N f(grad)=N a(iso)=N a(dip)=N a(orb)=N sigma(nmr)=Y spin-spin(nmr)=all-N,DSO-N,PSO-N,FC-N,SD-N
   Nucleus:   8H 
       Hyperfine : Isotope=    1 I=   0.500 P= 533.552
       Quadrupole: Isotope=    2 I=   1.000 Q=   0.003
       Spin-Orbit: Zeff=   1.000
       Nuclear Spin-Spin: Gn=   0.000
       EPRNMR Input: 
       rho(0)=N f(grad)=N a(iso)=N a(dip)=N a(orb)=N sigma(nmr)=Y spin-spin(nmr)=all-N,DSO-N,PSO-N,FC-N,SD-N
   Nucleus:   9H 
       Hyperfine : Isotope=    1 I=   0.500 P= 533.552
       Quadrupole: Isotope=    2 I=   1.000 Q=   0.003
       Spin-Orbit: Zeff=   1.000
       Nuclear Spin-Spin: Gn=   0.000
       EPRNMR Input: 
       rho(0)=N f(grad)=N a(iso)=N a(dip)=N a(orb)=N sigma(nmr)=Y spin-spin(nmr)=all-N,DSO-N,PSO-N,FC-N,SD-N
   Nucleus:  10H 
       Hyperfine : Isotope=    1 I=   0.500 P= 533.552
       Quadrupole: Isotope=    2 I=   1.000 Q=   0.003
       Spin-Orbit: Zeff=   1.000
       Nuclear Spin-Spin: Gn=   0.000
       EPRNMR Input: 
       rho(0)=N f(grad)=N a(iso)=N a(dip)=N a(orb)=N sigma(nmr)=Y spin-spin(nmr)=all-N,DSO-N,PSO-N,FC-N,SD-N
   Nucleus:  11H 
       Hyperfine : Isotope=    1 I=   0.500 P= 533.552
       Quadrupole: Isotope=    2 I=   1.000 Q=   0.003
       Spin-Orbit: Zeff=   1.000
       Nuclear Spin-Spin: Gn=   0.000
       EPRNMR Input: 
       rho(0)=N f(grad)=N a(iso)=N a(dip)=N a(orb)=N sigma(nmr)=Y spin-spin(nmr)=all-N,DSO-N,PSO-N,FC-N,SD-N
   Nucleus:  12H 
       Hyperfine : Isotope=    1 I=   0.500 P= 533.552
       Quadrupole: Isotope=    2 I=   1.000 Q=   0.003
       Spin-Orbit: Zeff=   1.000
       Nuclear Spin-Spin: Gn=   0.000
       EPRNMR Input: 
       rho(0)=N f(grad)=N a(iso)=N a(dip)=N a(orb)=N sigma(nmr)=Y spin-spin(nmr)=all-N,DSO-N,PSO-N,FC-N,SD-N
   Nucleus:  13H 
       Hyperfine : Isotope=    1 I=   0.500 P= 533.552
       Quadrupole: Isotope=    2 I=   1.000 Q=   0.003
       Spin-Orbit: Zeff=   1.000
       Nuclear Spin-Spin: Gn=   0.000
       EPRNMR Input: 
       rho(0)=N f(grad)=N a(iso)=N a(dip)=N a(orb)=N sigma(nmr)=Y spin-spin(nmr)=all-N,DSO-N,PSO-N,FC-N,SD-N
Forming RHS of the CP-SCF equations         ... 
Calculating right hand sides for GIAO treatment        ... 
  Entering RightHandSide GIAO. ScalHFX=    0.0000 NeedHFX=0
     -> 1-electron GIAO integrals will be done analytically
     -> RI used in SCF. Same chosen for GIAO calculation.
     Making grid for GIAO integrations   ...

GRID GIAO
---------

General Integration Accuracy     IntAcc      ... 4.388
Radial Grid Type                 RadialGrid  ... OptM3 with GC (2021)
Angular Grid (max. ang.)         AngularGrid ... 4 (Lebedev-302)
Angular grid pruning method      GridPruning ... 4 (adaptive)
Weight generation scheme         WeightScheme... Becke
Basis function cutoff            BFCut       ... 1.0000e-10
Integration weight cutoff        WCut        ... 1.0000e-14
Angular grids for H and He will be reduced by one unit
Partially contracted basis set               ... off
Rotationally invariant grid construction     ... off

Total number of grid points                  ...    62514
Total number of batches                      ...      982
Average number of points per batch           ...       63
Average number of grid points per atom       ...     4465

  One-electron GIAO integrals (SHARK)     ... done
  Calculating G(B)[P]                     ... (RI-J: SHARK-ok) (copy J to G-ok) => dG/dB done
  DFT XC-terms                            ... done
  Extracting occupied and virtual blocks  ... 
  Operator  0  NO=  24 NV= 304 
  Transforming and RHS contribution       ... done
  Adding eps_i * S(B)_ai terms            ... done

  GIAO profiling information: 
    Total GIAO time               ...      20.0 sec
       GIAO 1-electron integrals  ...       0.1 sec (  0.4%)
       GIAO RI-J                  ...       3.8 sec ( 19.1%)
       GIAO XC-terms              ...      15.3 sec ( 76.6%)
       Right hand side assembly   ...       0.0 sec (  0.1%)

  GIAO right hand side done


Forming final perturbed densities           ... done
Transforming perturbed density to AO basis  ... done

Magnetic field perturbation calculated in 20.031 sec

---------------
CHEMICAL SHIFTS
---------------

Note: using conversion factor for au to ppm alpha^2/2 =   26.625677252 
GIAO: Analytic para- and diamagnetic shielding integrals (SHARK)       ...done
 --------------
 Nucleus   0C :
 --------------

Diamagnetic contribution to the shielding tensor (ppm) : 
           213.156          5.568         1.558
            -1.373        217.233         5.040
            26.146         -7.540       244.515

Paramagnetic contribution to the shielding tensor (ppm): 
          -115.946         11.265        16.552
            15.721       -104.114        15.518
           -34.184         35.239      -133.418

Total shielding tensor (ppm): 
            97.209         16.833        18.110
            14.348        113.119        20.558
            -8.039         27.699       111.097


 Diagonalized sT*s matrix:
 
 sDSO           230.770          211.557          232.577  iso=     224.968
 sPSO          -147.746         -114.360          -91.372  iso=    -117.826
        ---------------  ---------------  ---------------
 Total           83.024           97.196          141.205  iso=     107.142

 --------------
 Nucleus   1C :
 --------------

Diamagnetic contribution to the shielding tensor (ppm) : 
           245.186         -0.531        25.163
             5.999        219.435         7.620
             4.048         -8.263       212.678

Paramagnetic contribution to the shielding tensor (ppm): 
          -116.300        -23.272       -22.303
           -14.918       -129.699       -20.111
            20.295          3.302      -109.811

Total shielding tensor (ppm): 
           128.886        -23.802         2.861
            -8.919         89.736       -12.490
            24.343         -4.962       102.867


 Diagonalized sT*s matrix:
 
 sDSO           224.801          207.260          245.237  iso=     225.766
 sPSO          -141.754         -110.050         -104.005  iso=    -118.603
        ---------------  ---------------  ---------------
 Total           83.046           97.210          141.233  iso=     107.163

 --------------
 Nucleus   2O :
 --------------

Diamagnetic contribution to the shielding tensor (ppm) : 
           381.277        -18.714        39.193
           -36.119        379.307       -20.607
            27.044         27.126       354.249

Paramagnetic contribution to the shielding tensor (ppm): 
          -112.747          3.027       -90.030
            22.714       -100.264        14.465
           -78.757        -30.514       -71.544

Total shielding tensor (ppm): 
           268.531        -15.687       -50.837
           -13.405        279.043        -6.142
           -51.714         -3.388       282.705


 Diagonalized sT*s matrix:
 
 sDSO           392.759          382.586          339.489  iso=     371.611
 sPSO          -172.314         -100.886          -11.355  iso=     -94.852
        ---------------  ---------------  ---------------
 Total          220.444          281.700          328.134  iso=     276.760

 --------------
 Nucleus   3O :
 --------------

Diamagnetic contribution to the shielding tensor (ppm) : 
           403.391          6.364         2.713
            29.140        396.940        43.850
            12.841          2.426       403.916

Paramagnetic contribution to the shielding tensor (ppm): 
          -134.911        -22.015       -53.590
           -42.518       -117.898       -49.971
           -64.494         -5.855      -121.164

Total shielding tensor (ppm): 
           268.480        -15.651       -50.877
           -13.379        279.042        -6.120
           -51.653         -3.428       282.752


 Diagonalized sT*s matrix:
 
 sDSO           423.507          383.440          397.300  iso=     401.416
 sPSO          -203.055         -101.738          -69.180  iso=    -124.658
        ---------------  ---------------  ---------------
 Total          220.452          281.701          328.120  iso=     276.758

 --------------
 Nucleus   4C :
 --------------

Diamagnetic contribution to the shielding tensor (ppm) : 
           254.647          1.575         0.427
             3.770        275.118         0.116
           -18.385          5.646       245.000

Paramagnetic contribution to the shielding tensor (ppm): 
          -157.355         15.253        17.674
            10.601       -161.936        20.467
            10.259         22.068      -133.888

Total shielding tensor (ppm): 
            97.292         16.828        18.101
            14.370        113.183        20.583
            -8.126         27.714       111.111


 Diagonalized sT*s matrix:
 
 sDSO           252.296          260.602          261.867  iso=     258.255
 sPSO          -169.259         -163.307         -120.613  iso=    -151.060
        ---------------  ---------------  ---------------
 Total           83.038           97.295          141.254  iso=     107.196

 --------------
 Nucleus   5C :
 --------------

Diamagnetic contribution to the shielding tensor (ppm) : 
           246.854          3.236       -20.107
           -10.579        266.901       -13.891
            -0.301         -5.140       258.840

Paramagnetic contribution to the shielding tensor (ppm): 
          -117.977        -27.039        22.897
             1.614       -177.129         1.365
            24.648          0.185      -155.901

Total shielding tensor (ppm): 
           128.876        -23.803         2.790
            -8.964         89.772       -12.526
            24.347         -4.955       102.938


 Diagonalized sT*s matrix:
 
 sDSO           258.334          264.979          249.281  iso=     257.531
 sPSO          -175.275         -167.687         -108.045  iso=    -150.336
        ---------------  ---------------  ---------------
 Total           83.059           97.292          141.235  iso=     107.196

 --------------
 Nucleus   6H :
 --------------

Diamagnetic contribution to the shielding tensor (ppm) : 
            23.927         -8.119        15.718
           -11.748          4.823        -4.608
            18.362          0.129        15.353

Paramagnetic contribution to the shielding tensor (ppm): 
             5.358          6.156       -11.907
            11.694         21.679         4.926
           -15.096         -0.484        12.221

Total shielding tensor (ppm): 
            29.285         -1.963         3.811
            -0.053         26.502         0.318
             3.266         -0.354        27.574


 Diagonalized sT*s matrix:
 
 sDSO            -0.380            5.206           39.278  iso=      14.701
 sPSO            24.967           21.386           -7.095  iso=      13.086
        ---------------  ---------------  ---------------
 Total           24.587           26.592           32.183  iso=      27.787

 --------------
 Nucleus   7H :
 --------------

Diamagnetic contribution to the shielding tensor (ppm) : 
            11.306          4.230        -6.543
            -2.099          8.851        -2.661
            11.566         -8.004        38.943

Paramagnetic contribution to the shielding tensor (ppm): 
            12.087         -2.905         8.210
             2.583         18.283         3.669
           -13.114          8.612        -6.356

Total shielding tensor (ppm): 
            23.393          1.325         1.667
             0.484         27.134         1.008
            -1.548          0.607        32.587


 Diagonalized sT*s matrix:
 
 sDSO            11.070           11.295           36.735  iso=      19.700
 sPSO            12.122           15.927           -4.035  iso=       8.005
        ---------------  ---------------  ---------------
 Total           23.192           27.222           32.700  iso=      27.705

 --------------
 Nucleus   8H :
 --------------

Diamagnetic contribution to the shielding tensor (ppm) : 
            23.917          2.791        13.023
            14.055         16.106        20.805
             8.664          5.047        22.825

Paramagnetic contribution to the shielding tensor (ppm): 
             4.119         -0.736       -10.412
           -12.865         12.189       -19.476
            -5.899         -1.810         4.210

Total shielding tensor (ppm): 
            28.036          2.055         2.611
             1.190         28.294         1.330
             2.765          3.238        27.035


 Diagonalized sT*s matrix:
 
 sDSO            10.218           10.429           42.200  iso=      20.949
 sPSO            14.370           16.163          -10.015  iso=       6.839
        ---------------  ---------------  ---------------
 Total           24.588           26.592           32.186  iso=      27.789

 --------------
 Nucleus   9H :
 --------------

Diamagnetic contribution to the shielding tensor (ppm) : 
            38.532         -0.283         4.773
             9.712         14.465         5.217
            -9.081         -1.054        18.024

Paramagnetic contribution to the shielding tensor (ppm): 
            -6.102          0.748        -7.275
            -8.499         11.718        -7.336
             9.825         -0.775         6.478

Total shielding tensor (ppm): 
            32.430          0.464        -2.502
             1.214         26.182        -2.120
             0.744         -1.829        24.502


 Diagonalized sT*s matrix:
 
 sDSO            19.016           12.627           39.378  iso=      23.674
 sPSO             4.180           14.592           -6.679  iso=       4.031
        ---------------  ---------------  ---------------
 Total           23.195           27.220           32.699  iso=      27.705

 --------------
 Nucleus  10H :
 --------------

Diamagnetic contribution to the shielding tensor (ppm) : 
            46.470          0.789        -3.239
             3.178         47.231         1.744
            -3.982         -3.134        37.025

Paramagnetic contribution to the shielding tensor (ppm): 
           -17.181         -2.757         7.054
            -3.234        -20.729        -1.423
             7.244          2.785        -9.454

Total shielding tensor (ppm): 
            29.289         -1.968         3.814
            -0.056         26.501         0.321
             3.262         -0.349        27.571


 Diagonalized sT*s matrix:
 
 sDSO            45.932           45.529           39.264  iso=      43.575
 sPSO           -21.348          -18.936           -7.081  iso=     -15.788
        ---------------  ---------------  ---------------
 Total           24.584           26.593           32.183  iso=      27.787

 --------------
 Nucleus  11H :
 --------------

Diamagnetic contribution to the shielding tensor (ppm) : 
            42.339         -2.486        -3.350
             2.484         43.468         2.246
           -21.627          4.608        36.203

Paramagnetic contribution to the shielding tensor (ppm): 
           -18.945          3.811         5.012
            -2.004        -16.333        -1.239
            20.077         -4.000        -3.611

Total shielding tensor (ppm): 
            23.395          1.325         1.663
             0.480         27.135         1.007
            -1.550          0.608        32.592


 Diagonalized sT*s matrix:
 
 sDSO            41.315           43.133           37.563  iso=      40.670
 sPSO           -18.120          -15.910           -4.858  iso=     -12.963
        ---------------  ---------------  ---------------
 Total           23.194           27.223           32.704  iso=      27.707

 --------------
 Nucleus  12H :
 --------------

Diamagnetic contribution to the shielding tensor (ppm) : 
            30.627          5.732       -18.386
            -6.700         38.287        -8.774
            -2.949         -3.992        41.183

Paramagnetic contribution to the shielding tensor (ppm): 
             1.808         -5.270        15.885
             7.914        -12.101         6.657
             3.688          2.166       -16.682

Total shielding tensor (ppm): 
            32.435          0.462        -2.501
             1.215         26.186        -2.117
             0.739         -1.826        24.501


 Diagonalized sT*s matrix:
 
 sDSO            33.375           41.788           34.934  iso=      36.699
 sPSO           -10.176          -14.569           -2.230  iso=      -8.992
        ---------------  ---------------  ---------------
 Total           23.199           27.220           32.704  iso=      27.707

 --------------
 Nucleus  13H :
 --------------

Diamagnetic contribution to the shielding tensor (ppm) : 
            28.640          4.767        -2.777
            -6.921         47.411        -6.259
             0.308          7.662        35.954

Paramagnetic contribution to the shielding tensor (ppm): 
            -0.605         -2.714         5.385
             8.109        -19.118         7.592
             2.458         -4.422        -8.916

Total shielding tensor (ppm): 
            28.035          2.052         2.608
             1.188         28.293         1.333
             2.766          3.241        27.038


 Diagonalized sT*s matrix:
 
 sDSO            35.357           40.300           36.348  iso=      37.335
 sPSO           -10.769          -13.708           -4.163  iso=      -9.546
        ---------------  ---------------  ---------------
 Total           24.589           26.592           32.186  iso=      27.789



--------------------------------
CHEMICAL SHIELDING SUMMARY (ppm)
--------------------------------


  Nucleus  Element    Isotropic     Anisotropy
  -------  -------  ------------   ------------
      0       C          107.142         51.095 
      1       C          107.163         51.104 
      2       O          276.760         77.062 
      3       O          276.758         77.043 
      4       C          107.196         51.088 
      5       C          107.196         51.060 
      6       H           27.787          6.594 
      7       H           27.705          7.493 
      8       H           27.789          6.596 
      9       H           27.705          7.491 
     10       H           27.787          6.595 
     11       H           27.707          7.496 
     12       H           27.707          7.495 
     13       H           27.789          6.595 



Maximum memory used throughout the entire EPRNMR-calculation: 123.1 MB

Timings for individual modules:

Sum of individual times         ...       56.993 sec (=   0.950 min)
GTO integral calculation        ...        0.546 sec (=   0.009 min)   1.0 %
SCF iterations                  ...       34.276 sec (=   0.571 min)  60.1 %
EPR/NMR calculation             ...       22.171 sec (=   0.370 min)  38.9 %
                             ****ORCA TERMINATED NORMALLY****
TOTAL RUN TIME: 0 days 0 hours 0 minutes 57 seconds 237 msec
