[Molden Format]
[Title]
                                                                                
[Atoms] AU
 c     1    6 -.11929895489595E+02 0.50780228784001E+01 0.24299879892030E-01
 c     2    6 -.11865024581103E+02 0.27466656264038E+01 0.20907518528940E+00
 c     3    6 -.98178909309159E+01 0.70020133968539E+01 0.26831596377277E+00
 c     4    6 -.76055151855075E+01 0.52581216249838E+01 0.80417066309729E+00
 c     5    6 -.75406916565215E+01 0.29267653221472E+01 0.98897474525413E+00
 c     6    6 -.96526604998278E+01 0.10027543357065E+01 0.74488177191482E+00
 o     7    8 -.95909467692562E+01 -.12577960326807E+01 0.92486429764791E+00
 o     8    8 -.98795836272758E+01 0.92625565640971E+01 0.88218626310300E-01
[GTO]
    1 0
 s    5 1.00
 0.12384016938000E+04 0.55173650481097E-02
 0.18629004992000E+03 0.41088828555946E-01
 0.42251176346000E+02 0.18225382126490E+00
 0.11676557932000E+02 0.46828459437429E+00
 0.35930506482000E+01 0.44575817336002E+00
 s    1 1.00
 0.40245147363000E+00 0.10000000000000E+01
 s    1 1.00
 0.13090182668000E+00 0.10000000000000E+01
 p    3 1.00
 0.94680970621000E+01 0.56888332011037E-01
 0.20103545142000E+01 0.31294059336471E+00
 0.54771004707000E+00 0.76065016509135E+00
 p    1 1.00
 0.15268613795000E+00 0.10000000000000E+01
 d    1 1.00
 0.80000000000000E+00 0.10000000000000E+01
 
    2 0
 s    5 1.00
 0.12384016938000E+04 0.55173650481097E-02
 0.18629004992000E+03 0.41088828555946E-01
 0.42251176346000E+02 0.18225382126490E+00
 0.11676557932000E+02 0.46828459437429E+00
 0.35930506482000E+01 0.44575817336002E+00
 s    1 1.00
 0.40245147363000E+00 0.10000000000000E+01
 s    1 1.00
 0.13090182668000E+00 0.10000000000000E+01
 p    3 1.00
 0.94680970621000E+01 0.56888332011037E-01
 0.20103545142000E+01 0.31294059336471E+00
 0.54771004707000E+00 0.76065016509135E+00
 p    1 1.00
 0.15268613795000E+00 0.10000000000000E+01
 d    1 1.00
 0.80000000000000E+00 0.10000000000000E+01
 
    3 0
 s    5 1.00
 0.12384016938000E+04 0.55173650481097E-02
 0.18629004992000E+03 0.41088828555946E-01
 0.42251176346000E+02 0.18225382126490E+00
 0.11676557932000E+02 0.46828459437429E+00
 0.35930506482000E+01 0.44575817336002E+00
 s    1 1.00
 0.40245147363000E+00 0.10000000000000E+01
 s    1 1.00
 0.13090182668000E+00 0.10000000000000E+01
 p    3 1.00
 0.94680970621000E+01 0.56888332011037E-01
 0.20103545142000E+01 0.31294059336471E+00
 0.54771004707000E+00 0.76065016509135E+00
 p    1 1.00
 0.15268613795000E+00 0.10000000000000E+01
 d    1 1.00
 0.80000000000000E+00 0.10000000000000E+01
 
    4 0
 s    5 1.00
 0.12384016938000E+04 0.55173650481097E-02
 0.18629004992000E+03 0.41088828555946E-01
 0.42251176346000E+02 0.18225382126490E+00
 0.11676557932000E+02 0.46828459437429E+00
 0.35930506482000E+01 0.44575817336002E+00
 s    1 1.00
 0.40245147363000E+00 0.10000000000000E+01
 s    1 1.00
 0.13090182668000E+00 0.10000000000000E+01
 p    3 1.00
 0.94680970621000E+01 0.56888332011037E-01
 0.20103545142000E+01 0.31294059336471E+00
 0.54771004707000E+00 0.76065016509135E+00
 p    1 1.00
 0.15268613795000E+00 0.10000000000000E+01
 d    1 1.00
 0.80000000000000E+00 0.10000000000000E+01
 
    5 0
 s    5 1.00
 0.12384016938000E+04 0.55173650481097E-02
 0.18629004992000E+03 0.41088828555946E-01
 0.42251176346000E+02 0.18225382126490E+00
 0.11676557932000E+02 0.46828459437429E+00
 0.35930506482000E+01 0.44575817336002E+00
 s    1 1.00
 0.40245147363000E+00 0.10000000000000E+01
 s    1 1.00
 0.13090182668000E+00 0.10000000000000E+01
 p    3 1.00
 0.94680970621000E+01 0.56888332011037E-01
 0.20103545142000E+01 0.31294059336471E+00
 0.54771004707000E+00 0.76065016509135E+00
 p    1 1.00
 0.15268613795000E+00 0.10000000000000E+01
 d    1 1.00
 0.80000000000000E+00 0.10000000000000E+01
 
    6 0
 s    5 1.00
 0.12384016938000E+04 0.55173650481097E-02
 0.18629004992000E+03 0.41088828555946E-01
 0.42251176346000E+02 0.18225382126490E+00
 0.11676557932000E+02 0.46828459437429E+00
 0.35930506482000E+01 0.44575817336002E+00
 s    1 1.00
 0.40245147363000E+00 0.10000000000000E+01
 s    1 1.00
 0.13090182668000E+00 0.10000000000000E+01
 p    3 1.00
 0.94680970621000E+01 0.56888332011037E-01
 0.20103545142000E+01 0.31294059336471E+00
 0.54771004707000E+00 0.76065016509135E+00
 p    1 1.00
 0.15268613795000E+00 0.10000000000000E+01
 d    1 1.00
 0.80000000000000E+00 0.10000000000000E+01
 
    7 0
 s    5 1.00
 0.22661767785000E+04 -.53893503921743E-02
 0.34087010191000E+03 -.40234721388960E-01
 0.77363135167000E+02 -.18008184205526E+00
 0.21479644940000E+02 -.46828857657651E+00
 0.66589433124000E+01 -.44692617160187E+00
 s    1 1.00
 0.80975975668000E+00 0.10000000000000E+01
 s    1 1.00
 0.25530772234000E+00 0.10000000000000E+01
 p    3 1.00
 0.17721504317000E+02 0.62630248763161E-01
 0.38635505440000E+01 0.33331138482352E+00
 0.10480920883000E+01 0.74148638308122E+00
 p    1 1.00
 0.27641544411000E+00 0.10000000000000E+01
 d    1 1.00
 0.12000000000000E+01 0.10000000000000E+01
 
    8 0
 s    5 1.00
 0.22661767785000E+04 -.53893503921743E-02
 0.34087010191000E+03 -.40234721388960E-01
 0.77363135167000E+02 -.18008184205526E+00
 0.21479644940000E+02 -.46828857657651E+00
 0.66589433124000E+01 -.44692617160187E+00
 s    1 1.00
 0.80975975668000E+00 0.10000000000000E+01
 s    1 1.00
 0.25530772234000E+00 0.10000000000000E+01
 p    3 1.00
 0.17721504317000E+02 0.62630248763161E-01
 0.38635505440000E+01 0.33331138482352E+00
 0.10480920883000E+01 0.74148638308122E+00
 p    1 1.00
 0.27641544411000E+00 0.10000000000000E+01
 d    1 1.00
 0.12000000000000E+01 0.10000000000000E+01
 
[MO]
 Sym=     1a   
 Ene= -.18956153133183E+02
 Spin= Alpha
 Occup= 2.000000
     1 0.15438277338496E-05
     2 0.14368812080634E-03
     3 -.31518965519917E-02
     4 -.15685881707431E-03
     5 -.19162295970250E-03
     6 -.14549357525221E-04
     7 -.24142340313832E-02
     8 0.14225698523181E-02
     9 -.54966505785123E-03
    10 -.21771819872024E-03
    11 0.11524769562782E-03
    12 0.10247050309242E-03
    13 0.60847739555624E-04
    14 -.75121037770721E-04
    15 0.11063853097821E-04
    16 0.43058415653076E-05
    17 0.11114102449113E-03
    18 -.42375726590124E-02
    19 -.18168116821103E-03
    20 0.18219729598419E-03
    21 -.46847826599014E-04
    22 -.26655637662073E-02
    23 -.19140405904858E-02
    24 -.34574630151553E-03
    25 -.22576025930642E-03
    26 0.11801222738666E-03
    27 0.10774803191977E-03
    28 -.10234059754420E-03
    29 -.64867265679723E-04
    30 -.18951647537257E-04
    31 -.95450896489443E-04
    32 -.27460162279444E-02
    33 -.31911644460598E-02
    34 -.23379156623335E-04
    35 0.86161406262069E-03
    36 -.68582470986096E-04
    37 0.40994221903001E-03
    38 -.14788207758192E-01
    39 0.11787991076321E-02
    40 -.37873758687090E-03
    41 0.71569661542900E-03
    42 -.33695902855811E-03
    43 -.35225603160008E-04
    44 -.50537383479515E-05
    45 -.97650667128236E-04
    46 0.14473147238213E-05
    47 0.14618846505269E-03
    48 -.31595029255969E-02
    49 0.16672370118804E-03
    50 -.17814403576390E-03
    51 0.43804311113067E-04
    52 0.23422235449178E-02
    53 0.16126679924265E-02
    54 0.30872571406452E-03
    55 -.21075534392481E-03
    56 0.10419819201001E-03
    57 0.10655715191481E-03
    58 -.92132874773002E-04
    59 -.62135531868987E-04
    60 -.16017338937142E-04
    61 0.44029701874881E-05
    62 0.10867135397994E-03
    63 -.42301771114927E-02
    64 0.17156458839428E-03
    65 0.19690322931892E-03
    66 0.16858022765370E-04
    67 0.27536885058976E-02
    68 -.16961446295591E-02
    69 0.63220877276915E-03
    70 -.23359443315810E-03
    71 0.13036865602506E-03
    72 0.10322577713304E-03
    73 0.68603377760900E-04
    74 -.79362051716404E-04
    75 0.11325158134909E-04
    76 -.10013131662900E-03
    77 -.29416231297758E-02
    78 -.30087024988020E-02
    79 0.24980289081369E-04
    80 -.91981865315745E-03
    81 0.73184990556484E-04
    82 -.44033396681281E-03
    83 0.15901477351227E-01
    84 -.12667984824800E-02
    85 -.40305592906520E-03
    86 0.76184343941450E-03
    87 -.35878751034930E-03
    88 -.37490188447754E-04
    89 -.53388231754409E-05
    90 -.10390002918059E-03
    91 0.72078707159931E+00
    92 -.30599974857039E-01
    93 0.27025253621006E-01
    94 0.56274416339863E-04
    95 -.20754166786343E-02
    96 0.16491024968397E-03
    97 -.15802549420245E-03
    98 0.58404710748230E-02
    99 -.46472357715162E-03
   100 0.63245603574574E-04
   101 -.14765290987130E-03
   102 0.84407306296721E-04
   103 0.64241071696856E-05
   104 -.54050947147805E-05
   105 0.21419118445987E-04
   106 0.67714719647253E+00
   107 -.28748201194075E-01
   108 0.25380131893841E-01
   109 -.52838807558205E-04
   110 0.19497429188531E-02
   111 -.15501230829050E-03
   112 0.14834932148893E-03
   113 -.54879346881340E-02
   114 0.43695247729797E-03
   115 0.59168348174143E-04
   116 -.13868424467156E-03
   117 0.79515896497415E-04
   118 0.60189882248829E-05
   119 -.51794061592464E-05
   120 0.20147784524517E-04
 Sym=     2a   
 Ene= -.18956152420671E+02
 Spin= Alpha
 Occup= 2.000000
     1 0.45864456989881E-04
     2 -.55767351527187E-03
     3 -.17346595379190E-01
     4 -.24065693960948E-03
     5 -.90323365397042E-04
     6 -.37541926500460E-04
     7 -.55040848760541E-02
     8 0.44255923056588E-02
     9 -.13376505836970E-02
    10 -.26112863629824E-03
    11 0.24598507907367E-03
    12 0.15143557224565E-04
    13 0.12639598740079E-03
    14 -.70291371957314E-04
    15 0.42344094299546E-05
    16 -.45676302543400E-04
    17 0.56621929442076E-03
    18 0.17112469144576E-01
    19 0.23414067739596E-03
    20 -.58995367196654E-04
    21 0.47229736131059E-04
    22 0.50874013666670E-02
    23 0.47659119645230E-02
    24 0.58014219137440E-03
    25 0.23332943450618E-03
    26 -.21776452589857E-03
    27 -.15564908607610E-04
    28 0.16050059123674E-03
    29 0.41608851462649E-04
    30 0.46597117364545E-04
    31 -.78092794278842E-04
    32 -.32191131872317E-02
    33 0.27944737764928E-02
    34 -.26277322067180E-04
    35 0.95992461838366E-03
    36 -.76577382381953E-04
    37 0.49769717675404E-03
    38 -.18289471189843E-01
    39 0.14559018699240E-02
    40 -.40173718397901E-03
    41 0.76179614445639E-03
    42 -.36005896047737E-03
    43 -.37242882821210E-04
    44 -.47822057180393E-05
    45 -.10404517753717E-03
    46 0.45851277407600E-04
    47 -.55808421834240E-03
    48 -.17343433912359E-01
    49 0.24500625363407E-03
    50 -.70232839141990E-04
    51 0.50057480376097E-04
    52 0.52439226379185E-02
    53 0.48760113597862E-02
    54 0.60037186541984E-03
    55 -.24696960619427E-03
    56 0.22469719076366E-03
    57 0.22272415430606E-04
    58 -.16657702368165E-03
    59 -.45560086650123E-04
    60 -.47694179932620E-04
    61 -.45683436941032E-04
    62 0.56565344689445E-03
    63 0.17116101279640E-01
    64 -.23041397845633E-03
    65 -.78206959814504E-04
    66 -.36564562668587E-04
    67 -.53426028477161E-02
    68 0.43282297112607E-02
    69 -.13007327591538E-02
    70 0.24703216253573E-03
    71 -.23832118688989E-03
    72 -.87109756458365E-05
    73 -.12234650384498E-03
    74 0.65461663176356E-04
    75 -.35428666442810E-05
    76 0.71982765919402E-04
    77 0.30416445353142E-02
    78 -.29879011270945E-02
    79 -.24776353636258E-04
    80 0.90432414930506E-03
    81 -.72106405121329E-04
    82 0.47129963274283E-03
    83 -.17331674327734E-01
    84 0.13788193658817E-02
    85 0.37733425362141E-03
    86 -.71568741010889E-03
    87 0.33835315648748E-03
    88 0.34983772764030E-04
    89 0.44610155677328E-05
    90 0.97699859155246E-04
    91 -.67714844630175E+00
    92 0.28732080211727E-01
    93 -.25525731195480E-01
    94 -.53070448097329E-04
    95 0.19498706452431E-02
    96 -.15490018162710E-03
    97 0.14934576190735E-03
    98 -.54687382929740E-02
    99 0.43524205799109E-03
   100 -.63334933439951E-04
   101 0.13908385439407E-03
   102 -.75748920954117E-04
   103 -.62590235909387E-05
   104 0.34549714838512E-05
   105 -.19869551146421E-04
   106 0.72078825679888E+00
   107 -.30584717906346E-01
   108 0.27161468681697E-01
   109 -.56461456819136E-04
   110 0.20755128827087E-02
   111 -.16496873198550E-03
   112 0.15886058923221E-03
   113 -.58223201056586E-02
   114 0.46365111261923E-03
   115 0.67156062852750E-04
   116 -.14801996859868E-03
   117 0.80863905745929E-04
   118 0.66452505866369E-05
   119 -.37849370612216E-05
   120 0.21178722488581E-04
 Sym=     3a   
 Ene= -.10179473182443E+02
 Spin= Alpha
 Occup= 2.000000
     1 0.30091697351945E-03
     2 -.72116401369433E-03
     3 0.50339332055516E-01
     4 -.54330027303539E-03
     5 -.42542152678687E-03
     6 -.67589737105172E-04
     7 0.10297969450209E-01
     8 -.13114366386323E-01
     9 0.28593909115652E-02
    10 -.22471686830246E-03
    11 -.11166552982581E-03
    12 0.33638239812827E-03
    13 -.74054247460041E-03
    14 -.64882289428782E-04
    15 -.96788606962463E-04
    16 -.29828144750857E-03
    17 0.70810759122796E-03
    18 -.50254107277067E-01
    19 0.55889760526965E-03
    20 -.37607724771543E-03
    21 0.13097801299817E-03
    22 -.95057022681023E-02
    23 -.13945004151134E-01
    24 -.71166091342609E-03
    25 0.29281977496522E-03
    26 0.67900044853786E-05
    27 -.29960977945060E-03
    28 -.70404691715165E-03
    29 0.18612246676964E-03
    30 -.15910984034785E-03
    31 0.70154406980588E+00
    32 0.35359465838811E-01
    33 -.33601331434142E-01
    34 -.88839155466888E-05
    35 0.35295815212455E-03
    36 -.27628386708378E-04
    37 -.77312778711806E-03
    38 0.28446162734823E-01
    39 -.22615280936335E-02
    40 -.28204668527504E-03
    41 0.98855758926366E-03
    42 -.70651090398862E-03
    43 -.32529000546466E-04
    44 0.97820244373733E-04
    45 -.15414661242285E-03
    46 0.30015952545691E-03
    47 -.72026388658892E-03
    48 0.50331314982500E-01
    49 0.56521279285941E-03
    50 -.37874077429452E-03
    51 0.13232002658939E-03
    52 -.95395104500389E-02
    53 -.13947950437212E-01
    54 -.71725690056885E-03
    55 -.29394352633867E-03
    56 -.68027223730141E-05
    57 0.30074624871169E-03
    58 0.70760512056957E-03
    59 -.18693611036187E-03
    60 0.15989045854081E-03
    61 -.29903634107273E-03
    62 0.70902570729271E-03
    63 -.50262327644688E-01
    64 -.53713990068373E-03
    65 -.42223525446352E-03
    66 -.66712044472603E-04
    67 0.10264127946275E-01
    68 -.13114280729622E-01
    69 0.28534965759099E-02
    70 0.22391956818779E-03
    71 0.11113407311427E-03
    72 -.33505364130207E-03
    73 0.73686055433339E-03
    74 0.64724370044007E-04
    75 0.96311710264611E-04
    76 -.69674999245569E+00
    77 -.35130865942692E-01
    78 0.33446888061073E-01
    79 -.87707644870505E-05
    80 0.34836261850298E-03
    81 -.27214887101592E-04
    82 -.76966339822155E-03
    83 0.28313189336939E-01
    84 -.22500305493280E-02
    85 0.27964116562794E-03
    86 -.98177946620966E-03
    87 0.70213830058172E-03
    88 0.32289419911953E-04
    89 -.97366478158634E-04
    90 0.15304113194966E-03
    91 -.23864548338658E-03
    92 -.18149289599557E-02
    93 0.17504642506534E-01
    94 -.23790007441891E-04
    95 0.87298711533561E-03
    96 -.69434443658519E-04
    97 -.17683067579911E-03
    98 0.64637666581419E-02
    99 -.51547329442652E-03
   100 -.12042610812493E-03
   101 0.26281711479398E-03
   102 -.14239100666905E-03
   103 -.11698047013933E-04
   104 0.62579598103660E-05
   105 -.37379845122408E-04
   106 0.24010804455292E-03
   107 0.18249773814578E-02
   108 -.17602779961830E-01
   109 -.23934431735627E-04
   110 0.87843822468826E-03
   111 -.69896019315498E-04
   112 -.17791204437564E-03
   113 0.65060754092599E-02
   114 -.51924033858859E-03
   115 0.12115240912160E-03
   116 -.26465211974145E-03
   117 0.14349971061985E-03
   118 0.11766945242225E-04
   119 -.63533191700656E-05
   120 0.37677790974234E-04
 Sym=     4a   
 Ene= -.10179414390778E+02
 Spin= Alpha
 Occup= 2.000000
     1 0.27538640259345E-03
     2 -.17456404883526E-02
     3 0.11015919738314E-01
     4 -.89830307437734E-03
     5 -.46403966151867E-03
     6 -.13038543627249E-03
     7 0.48172681413350E-02
     8 0.31818409804946E-04
     9 0.88270277883468E-03
    10 -.11792331200425E-03
    11 -.77983886591101E-04
    12 0.19590719859535E-03
    13 -.53242867652225E-03
    14 -.26610686732314E-04
    15 -.74041446709617E-04
    16 0.27712202032561E-03
    17 -.17532548458597E-02
    18 0.11393332930603E-01
    19 -.92477145215297E-03
    20 0.39004205636457E-03
    21 -.19857002414914E-03
    22 0.48799897952640E-02
    23 0.47936240995501E-03
    24 0.85815328275384E-03
    25 -.16920205081701E-03
    26 -.24903089079972E-05
    27 0.17169235972500E-03
    28 0.52037635342569E-03
    29 -.11658143365488E-03
    30 0.11277800641233E-03
    31 0.69691083507726E+00
    32 0.33251779874804E-01
    33 -.22325075385283E-01
    34 -.17749074386065E-04
    35 0.66718263888457E-03
    36 -.52812015522035E-04
    37 -.52755034407511E-03
    38 0.19328404512640E-01
    39 -.15389579205619E-02
    40 -.35117393896008E-03
    41 0.98892722030732E-03
    42 -.63775328134725E-03
    43 -.37074073553699E-04
    44 0.67882849955176E-04
    45 -.14862283459525E-03
    46 0.27504966119332E-03
    47 -.17482500720109E-02
    48 0.11045276523359E-01
    49 0.92091110178935E-03
    50 -.38746261939562E-03
    51 0.19770379272428E-03
    52 -.48137310350186E-02
    53 -.38317530972702E-03
    54 -.85318175623439E-03
    55 -.16720588743646E-03
    56 -.24405660243121E-05
    57 0.16964645346077E-03
    58 0.51551939959963E-03
    59 -.11530421123155E-03
    60 0.11169515497564E-03
    61 0.27746375168386E-03
    62 -.17506512960434E-02
    63 0.11364031170992E-01
    64 0.90200123263987E-03
    65 0.46693722182968E-03
    66 0.13088177006549E-03
    67 -.48887270494764E-02
    68 0.58578108227636E-04
    69 -.90260531934102E-03
    70 -.11944007125828E-03
    71 -.78756200054770E-04
    72 0.19819627131305E-03
    73 -.53750114551653E-03
    74 -.27064854935041E-04
    75 -.74744727606024E-04
    76 0.70170377601759E+00
    77 0.33493652908600E-01
    78 -.22557240339144E-01
    79 0.17819651743373E-04
    80 -.66957396258319E-03
    81 0.52942086045787E-04
    82 0.53299263050229E-03
    83 -.19524554846809E-01
    84 0.15539330870062E-02
    85 -.35310542337749E-03
    86 0.99569437415331E-03
    87 -.64258895077582E-03
    88 -.37312941370755E-04
    89 0.68548718064403E-04
    90 -.14958925988000E-03
    91 0.21508226159815E-03
    92 0.14802965739875E-02
    93 -.14423502677102E-01
    94 0.21925375587404E-04
    95 -.79969537549618E-03
    96 0.63597105844964E-04
    97 0.16920057547940E-03
    98 -.62089180198364E-02
    99 0.49469367391783E-03
   100 0.10658752576861E-03
   101 -.26940615022790E-03
   102 0.16281862445929E-03
   103 0.10859503217464E-04
   104 -.13736701430313E-04
   105 0.39646145565561E-04
   106 0.21343607877989E-03
   107 0.14677670691665E-02
   108 -.14302679071293E-01
   109 -.21757444197383E-04
   110 0.79368210243807E-03
   111 -.63141441640652E-04
   112 -.16791502050121E-03
   113 0.61643730476658E-02
   114 -.49151140510961E-03
   115 0.10576210499687E-03
   116 -.26759800599601E-03
   117 0.16183590099913E-03
   118 0.10774230782968E-04
   119 -.13692912043683E-04
   120 0.39416790691911E-04
 Sym=     5a   
 Ene= -.10063729189873E+02
 Spin= Alpha
 Occup= 2.000000
     1 0.48385367280503E+00
     2 0.18605881732263E-01
     3 -.43810923448386E-02
     4 0.63696126744947E-03
     5 0.74219168822750E-03
     6 0.61739553995918E-04
     7 -.87940217027531E-03
     8 0.35352569370333E-02
     9 -.42477159806197E-03
    10 -.26663113559332E-03
    11 0.46916183289139E-03
    12 -.20253069729806E-03
    13 0.28592566492122E-03
    14 -.35995723752030E-04
    15 -.45376531319471E-05
    16 0.50527122529294E+00
    17 0.19652608958411E-01
    18 -.46960514965529E-02
    19 0.71129387495035E-03
    20 -.59486758441576E-03
    21 0.17445074701545E-03
    22 -.80374154566961E-03
    23 -.33610316488798E-02
    24 0.10323096026989E-03
    25 -.24644141301617E-03
    26 0.45311702289546E-03
    27 -.20667560987928E-03
    28 -.34819594544595E-03
    29 0.19934559035949E-04
    30 -.12140930144096E-03
    31 -.46145449253529E-05
    32 0.59007212707201E-05
    33 -.24420005524029E-03
    34 0.11217150861612E-02
    35 0.26348283649790E-04
    36 0.20384999548154E-03
    37 0.54753846165736E-02
    38 0.10303377438988E-03
    39 0.99649305412019E-03
    40 0.46215362544474E-04
    41 -.53466216742364E-04
    42 0.72508541978908E-05
    43 -.76088178181020E-03
    44 0.69229383341973E-04
    45 -.13606404642238E-03
    46 -.50520588889620E+00
    47 -.19649838100821E-01
    48 0.46934618313649E-02
    49 0.71120542352349E-03
    50 -.59495476313441E-03
    51 0.17443814885336E-03
    52 -.80324998900939E-03
    53 -.33607004190060E-02
    54 0.10340147910916E-03
    55 0.24641652942843E-03
    56 -.45303311197576E-03
    57 0.20661658254733E-03
    58 0.34812194313657E-03
    59 -.19931373347929E-04
    60 0.12139985705464E-03
    61 -.48385097547834E+00
    62 -.18606199582625E-01
    63 0.43826604455727E-02
    64 0.63694929282419E-03
    65 0.74200475264140E-03
    66 0.61776307952456E-04
    67 -.87980945761870E-03
    68 0.35355934526322E-02
    69 -.42487550926354E-03
    70 0.26665116830706E-03
    71 -.46919227084937E-03
    72 0.20254110254231E-03
    73 -.28597045391659E-03
    74 0.35989669212642E-04
    75 0.45277767176709E-05
    76 0.46385322733472E-05
    77 -.60424108103106E-05
    78 0.24457494245662E-03
    79 0.11218658465832E-02
    80 0.26286681077220E-04
    81 0.20388257829874E-03
    82 0.54750620949991E-02
    83 0.10307736448995E-03
    84 0.99656978858974E-03
    85 -.46269050950025E-04
    86 0.53481958033990E-04
    87 -.72129070839645E-05
    88 0.76096176733325E-03
    89 -.69221304867439E-04
    90 0.13609144032623E-03
    91 0.23495031589526E-05
    92 0.25843029963223E-04
    93 -.15631999387552E-03
    94 0.32301396229344E-03
    95 0.11704840065938E-04
    96 0.58379591858202E-04
    97 -.17215184825337E-02
    98 -.95648224877461E-04
    99 -.30862417780933E-03
   100 0.28224415458577E-05
   101 -.14717487534653E-05
   102 -.13506927923923E-05
   103 -.28604588170213E-04
   104 0.31947126779638E-05
   105 -.53029297521136E-05
   106 -.23494022058035E-05
   107 -.25844687547071E-04
   108 0.15628039390705E-03
   109 0.32300237034026E-03
   110 0.11707555401613E-04
   111 0.58367112802938E-04
   112 -.17215414049534E-02
   113 -.95647895574119E-04
   114 -.30857573125146E-03
   115 -.28197896047871E-05
   116 0.14726473045045E-05
   117 0.13471423002827E-05
   118 0.28615877338765E-04
   119 -.31949445830385E-05
   120 0.53031838810852E-05
 Sym=     6a   
 Ene= -.10063697116375E+02
 Spin= Alpha
 Occup= 2.000000
     1 0.48370613244039E+00
     2 0.17276984587095E-01
     3 -.69582385940277E-02
     4 0.73050989207815E-03
     5 0.82903721156705E-03
     6 0.72240306596056E-04
     7 -.59522785693745E-03
     8 -.12513738079205E-03
     9 -.97588223287124E-04
    10 -.11712068707694E-03
    11 0.43131080796320E-03
    12 -.31419012088626E-03
    13 0.12250169060965E-03
    14 0.34466386838440E-04
    15 -.42023431777275E-04
    16 0.50546099206395E+00
    17 0.18349246484136E-01
    18 -.76968892297948E-02
    19 0.80105269535576E-03
    20 -.67312725634557E-03
    21 0.19692258116793E-03
    22 -.10447276742442E-02
    23 0.52371095554214E-03
    24 -.23266307662957E-03
    25 -.11894083664416E-03
    26 0.44419333861875E-03
    27 -.32525250197460E-03
    28 -.16682403184475E-03
    29 0.59487676290820E-04
    30 -.97956792880172E-04
    31 0.35818072489531E-03
    32 -.20504045096072E-02
    33 0.52406207693623E-02
    34 -.65224418731613E-04
    35 0.97450028391031E-03
    36 -.84426759273018E-04
    37 0.33300142074202E-03
    38 -.58952882509383E-03
    39 0.10262197831375E-03
    40 -.58287355361590E-03
    41 0.12693595922498E-03
    42 0.45593759439093E-03
    43 -.21244269978287E-04
    44 -.22644554261640E-03
    45 0.27744608311926E-04
    46 0.50546591079943E+00
    47 0.18349155645271E-01
    48 -.76993985551245E-02
    49 -.80105206461159E-03
    50 0.67329110482333E-03
    51 -.19694101425294E-03
    52 0.10455291788000E-02
    53 -.52275409408794E-03
    54 0.23274128798094E-03
    55 -.11894710912773E-03
    56 0.44416845927364E-03
    57 -.32522135014591E-03
    58 -.16679379678898E-03
    59 0.59476078347028E-04
    60 -.97954824258562E-04
    61 0.48377193344519E+00
    62 0.17279811224336E-01
    63 -.69563532968068E-02
    64 -.73060792789655E-03
    65 -.82897294098287E-03
    66 -.72299655304555E-04
    67 0.59447164477852E-03
    68 0.12553270088443E-03
    69 0.97559092984230E-04
    70 -.11715596740172E-03
    71 0.43140736650829E-03
    72 -.31425139910657E-03
    73 0.12257188513136E-03
    74 0.34467869501767E-04
    75 -.42027402729416E-04
    76 0.35816870418873E-03
    77 -.20503045201141E-02
    78 0.52390065241401E-02
    79 0.65151463458709E-04
    80 -.97459883318561E-03
    81 0.84395251715386E-04
    82 -.33333717427867E-03
    83 0.58780329939201E-03
    84 -.10265433442828E-03
    85 -.58290067028945E-03
    86 0.12690539482863E-03
    87 0.45599527546082E-03
    88 -.21298168289466E-04
    89 -.22647791375433E-03
    90 0.27722383054531E-04
    91 0.10277100042871E-06
    92 -.36221291851329E-04
    93 -.54401362237548E-03
    94 0.12749669655241E-05
    95 -.59377516889907E-04
    96 0.47876322897225E-05
    97 0.37582683935375E-04
    98 0.53104714063275E-04
    99 0.22217023854502E-05
   100 0.42848739977074E-04
   101 0.43363550654559E-05
   102 -.47185095042530E-04
   103 0.63862071847705E-05
   104 0.19294367763029E-04
   105 -.35807178236533E-05
   106 0.92645950005921E-07
   107 -.36331292513987E-04
   108 -.54325158966227E-03
   109 -.12966603848447E-05
   110 0.59368923785126E-04
   111 -.47994889299338E-05
   112 -.37461398570141E-04
   113 -.53180528148155E-04
   114 -.21570616632628E-05
   115 0.42849234782963E-04
   116 0.43286208041950E-05
   117 -.47177855587158E-04
   118 0.63848074607720E-05
   119 0.19292012282024E-04
   120 -.35840583096632E-05
 Sym=     7a   
 Ene= -.10062234228854E+02
 Spin= Alpha
 Occup= 2.000000
     1 -.50496561121649E+00
     2 -.24590045852789E-01
     3 0.68069830403434E-02
     4 -.97035497349350E-03
     5 0.20378369144582E-02
     6 -.32870144719961E-03
     7 0.24258059653119E-02
     8 0.59698099586624E-02
     9 0.16983731435097E-05
    10 0.23946573539095E-03
    11 -.71344690452011E-03
    12 0.47398116912916E-03
    13 -.30726168953837E-03
    14 -.28480521355130E-04
    15 0.45570741615702E-04
    16 0.48354927555739E+00
    17 0.23761131613888E-01
    18 -.66242779319223E-02
    19 0.82331304148765E-03
    20 0.21406053850685E-02
    21 -.78033942131424E-05
    22 -.27239378551365E-02
    23 0.59108121384976E-02
    24 -.93826915659897E-03
    25 -.19765591336275E-03
    26 0.64628002740141E-03
    27 -.44862411403866E-03
    28 -.34270186580550E-03
    29 0.83688315970192E-04
    30 -.15868995312907E-03
    31 -.18230294526484E-03
    32 0.23492050979954E-03
    33 -.11374986857021E-01
    34 0.14297528693693E-05
    35 -.93690559790866E-03
    36 0.70307971526102E-04
    37 0.32295742140165E-04
    38 -.59251210943001E-02
    39 0.44614280205048E-03
    40 0.46509641629553E-03
    41 0.73291284112042E-04
    42 -.53838770040757E-03
    43 0.46104344858044E-04
    44 0.21705406682935E-03
    45 -.47329566238026E-04
    46 -.48387652123843E+00
    47 -.23776909273643E-01
    48 0.66346939552998E-02
    49 0.82377530715810E-03
    50 0.21418945904125E-02
    51 -.78497827962606E-05
    52 -.27300989795896E-02
    53 0.59171145327699E-02
    54 -.94016428661165E-03
    55 0.19786178677869E-03
    56 -.64674950811139E-03
    57 0.44888772133270E-03
    58 0.34291236306056E-03
    59 -.83718263968099E-04
    60 0.15882611752549E-03
    61 0.50524369975041E+00
    62 0.24604163639874E-01
    63 -.68173701616925E-02
    64 -.97071707835298E-03
    65 0.20390914877767E-02
    66 -.32895912075294E-03
    67 0.24319735689170E-02
    68 0.59769028953362E-02
    69 0.24591036899899E-05
    70 -.23969369385923E-03
    71 0.71390679358094E-03
    72 -.47421309972171E-03
    73 0.30747175366194E-03
    74 0.28468372798355E-04
    75 -.45607893867894E-04
    76 0.18225937663935E-03
    77 -.23484432762365E-03
    78 0.11375449635023E-01
    79 0.36761287302495E-06
    80 -.93693116990306E-03
    81 0.70074818907272E-04
    82 0.41394294197996E-04
    83 -.59245245193061E-02
    84 0.44755022380696E-03
    85 -.46503004729966E-03
    86 -.73347014524707E-04
    87 0.53837706182436E-03
    88 -.46619436840343E-04
    89 -.21700306203575E-03
    90 0.47221898602882E-04
    91 0.11026040020602E-03
    92 0.12224571218016E-02
    93 -.73697384393726E-02
    94 -.49150294366389E-05
    95 -.81010494999517E-04
    96 0.49490995203621E-05
    97 0.68845023645697E-04
    98 -.11328612734048E-02
    99 0.98048629199269E-04
   100 0.68410776240868E-04
   101 0.27427880485377E-04
   102 -.95838656726246E-04
   103 0.47424162352572E-05
   104 0.35782723612352E-04
   105 -.10269426626106E-04
   106 -.11025683562387E-03
   107 -.12224232659438E-02
   108 0.73696964845927E-02
   109 -.49266453840226E-05
   110 -.81018328776693E-04
   111 0.49349145190839E-05
   112 0.69946892680223E-04
   113 -.11327812005725E-02
   114 0.98356121225332E-04
   115 -.68408834346772E-04
   116 -.27434122913590E-04
   117 0.95842957260362E-04
   118 -.48445224592212E-05
   119 -.35773110516396E-04
   120 0.10258504195845E-04
 Sym=     8a   
 Ene= -.10062224559493E+02
 Spin= Alpha
 Occup= 2.000000
     1 0.50545552024039E+00
     2 0.24819544130023E-01
     3 -.17112160653377E-01
     4 0.75763189455101E-03
     5 -.20357621675704E-02
     6 0.28957375150588E-03
     7 -.98599713838358E-02
     8 -.11404197802161E-01
     9 -.96083385740617E-03
    10 -.37200208252997E-03
    11 0.79702170399903E-03